ITEM: TIMESTEP
7920000
ITEM: NUMBER OF ATOMS
1532
ITEM: BOX BOUNDS ff ff pp
-10223.3 10223.3
-2900 2900
-100 100
ITEM: ATOMS id radius xs ys vx vy omegaz fx fy tqz c_2b[1] c_2b[2] c_2b[4] 
1231 99.95 0.00488823 0.0517155 0 0 0 0 0 0 -0 -0 -0 
1232 99.95 0.00488823 0.0172328 0 0 0 0 0 0 -0 -0 -0 
1233 99.95 0.0146698 0.0517155 0 0 0 0 0 0 -0 -0 -0 
1234 99.95 0.0146698 0.0172328 0 0 0 0 0 0 -0 -0 -0 
1235 99.95 0.0244513 0.0517155 0 0 0 0 0 0 -0 -0 -0 
1236 99.95 0.0244513 0.0172328 0 0 0 0 0 0 -0 -0 -0 
1433 99.946 0.0146698 0.0862241 0 0 0 0 0 0 -0 -0 -0 
1458 99.946 0.00488823 0.0862241 0 0 0 0 0 0 -0 -0 -0 
1237 99.95 0.0342329 0.0517155 0 0 0 0 0 0 -0 -0 -0 
1238 99.95 0.0342329 0.0172328 0 0 0 0 0 0 -0 -0 -0 
1239 99.95 0.0440145 0.0517155 0 0 0 0 0 0 -0 -0 -0 
1240 99.95 0.0440145 0.0172328 0 0 0 0 0 0 -0 -0 -0 
916 43.2175 0.0489052 0.0693801 2.57023e-07 2.50868e-07 -8.16527e-09 -1.11041e-09 -1.08382e-09 0.0917239 -0 -0 -0 
687 68.8405 0.0391238 0.0751603 2.72726e-08 2.16475e-08 -5.02368e-10 -2.8983e-11 -2.3005e-11 0.0363305 -0 -0 -0 
1241 99.95 0.053796 0.0517155 0 0 0 0 0 0 -0 -0 -0 
1242 99.95 0.053796 0.0172328 0 0 0 0 0 0 -0 -0 -0 
1243 99.95 0.0635776 0.0517155 0 0 0 0 0 0 -0 -0 -0 
1244 99.95 0.0635776 0.0172328 0 0 0 0 0 0 -0 -0 -0 
1245 99.95 0.0733591 0.0517155 0 0 0 0 0 0 -0 -0 -0 
1246 99.95 0.0733591 0.0172328 0 0 0 0 0 0 -0 -0 -0 
1247 99.95 0.0831407 0.0517155 0 0 0 0 0 0 -0 -0 -0 
1248 99.95 0.0831407 0.0172328 0 0 0 0 0 0 -0 -0 -0 
1249 99.95 0.0929222 0.0517155 0 0 0 0 0 0 -0 -0 -0 
1250 99.95 0.0929222 0.0172328 0 0 0 0 0 0 -0 -0 -0 
1251 99.95 0.102704 0.0517155 0 0 0 0 0 0 -0 -0 -0 
1252 99.95 0.102704 0.0172328 0 0 0 0 0 0 -0 -0 -0 
1253 99.95 0.112485 0.0517155 0 0 0 0 0 0 -0 -0 -0 
1254 99.95 0.112485 0.0172328 0 0 0 0 0 0 -0 -0 -0 
1255 99.95 0.122267 0.0517155 0 0 0 0 0 0 3.96524e-15 1.90924e-14 -1.99375e-14 
1256 99.95 0.122267 0.0172328 0 0 0 0 0 0 -0 -0 -0 
885 46.463 0.113768 0.0765506 -2.955e-06 5.7141e-07 6.24581e-08 1.23653e-07 -2.39108e-08 -0.937328 -0 -0 -0 
955 38.5065 0.117376 0.0682261 -3.1486e-11 4.25189e-11 -2.3097e-13 9.52126e-17 -4.20232e-16 1.63518e-06 3.96524e-15 1.90924e-14 -1.99375e-14 
761 60.433 0.118438 0.0848686 -6.66476e-06 6.0193e-06 1.17537e-07 1.4078e-06 -1.27146e-06 -5.04831 -0 -0 -0 
803 55.911 0.126599 0.077709 4.98373e-05 -0.000158134 1.43464e-06 -0.000166357 0.00052785 -45.1446 -0 -0 -0 
1257 99.95 0.132048 0.0517155 0 0 0 0 0 0 -0 -0 -0 
1258 99.95 0.132048 0.0172328 0 0 0 0 0 0 -0 -0 -0 
1259 99.95 0.14183 0.0517155 0 0 0 0 0 0 -0 -0 -0 
1260 99.95 0.14183 0.0172328 0 0 0 0 0 0 -0 -0 -0 
1261 99.95 0.151612 0.0517155 0 0 0 0 0 0 -0 -0 -0 
1262 99.95 0.151612 0.0172328 0 0 0 0 0 0 -0 -0 -0 
1263 99.95 0.161393 0.0517155 0 0 0 0 0 0 -0 -0 -0 
1264 99.95 0.161393 0.0172328 0 0 0 0 0 0 -0 -0 -0 
1265 99.95 0.171175 0.0517155 0 0 0 0 0 0 -0 -0 -0 
1266 99.95 0.171175 0.0172328 0 0 0 0 0 0 -0 -0 -0 
742 62.477 0.194911 0.0755469 -9.5959e-07 2.8934e-06 -5.49251e-08 7.35355e-08 -2.21727e-07 2.69479 -0 -0 -0 
1267 99.95 0.180956 0.0517155 0 0 0 0 0 0 -0 -0 -0 
1268 99.95 0.180956 0.0172328 0 0 0 0 0 0 -0 -0 -0 
1269 99.95 0.190738 0.0517155 0 0 0 0 0 0 -0 -0 -0 
1270 99.95 0.190738 0.0172328 0 0 0 0 0 0 -0 -0 -0 
994 35.014 0.199674 0.0747935 -4.53201e-07 -5.85258e-08 1.16569e-08 1.63516e-09 2.11163e-10 -0.0564186 -0 -0 -0 
1271 99.95 0.200519 0.0517155 0 0 0 0 0 0 -0 -0 -0 
1272 99.95 0.200519 0.0172328 0 0 0 0 0 0 -0 -0 -0 
1273 99.95 0.210301 0.0517155 0 0 0 0 0 0 -0 -0 -0 
1274 99.95 0.210301 0.0172328 0 0 0 0 0 0 -0 -0 -0 
1275 99.95 0.220082 0.0517155 0 0 0 0 0 0 -0 -0 -0 
1276 99.95 0.220082 0.0172328 0 0 0 0 0 0 -0 -0 -0 
560 86.2385 0.21626 0.0810994 0.0012894 0.000787219 -1.44762e-05 -0.0932996 -0.0569621 2578.3 -0 -0 -0 
568 85.191 0.205449 0.0786677 -4.3185e-07 -1.70785e-07 7.00711e-09 9.3737e-09 3.70705e-09 -1.18847 -0 -0 -0 
1277 99.95 0.229864 0.0517155 0 0 0 0 0 0 -0 -0 -0 
1278 99.95 0.229864 0.0172328 0 0 0 0 0 0 -0 -0 -0 
1279 99.95 0.239646 0.0517155 0 0 0 0 0 0 -0 -0 -0 
1280 99.95 0.239646 0.0172328 0 0 0 0 0 0 -0 -0 -0 
1281 99.95 0.249427 0.0517155 0 0 0 0 0 0 -0 -0 -0 
1282 99.95 0.249427 0.0172328 0 0 0 0 0 0 -0 -0 -0 
878 47.4 0.0203195 0.102589 -0.000250897 -0.00074562 7.63442e-06 0.00285605 0.00848765 -124.097 -0 -0 -0 
1434 99.946 0.0146698 0.120706 0 0 0 0 0 0 -0 -0 -0 
1435 99.946 0.0146698 0.155187 0 0 0 0 0 0 -13.677 0.280249 -2.53246 
1459 99.946 0.00488823 0.120706 0 0 0 0 0 0 -0 -0 -0 
1460 99.946 0.00488823 0.155187 0 0 0 0 0 0 -0 -0 -0 
30 349.327 0.0365094 0.146667 2.72848e-09 2.40159e-08 6.9191e-11 0.0659968 0.444045 77.077 -12.9764 89.5439 61.4204 
535 89.2855 0.051021 0.0909736 2.93859e-07 2.44183e-07 4.02982e-09 -5.76433e-09 -4.78989e-09 -0.824675 -0 -0 -0 
65 276.544 0.0665718 0.122166 -1.37769e-06 3.07593e-06 1.05456e-08 0.910988 -0.0231446 -194.22 200.773 0.218494 -5.09973 
233 164.641 0.0881294 0.11891 -1.29419e-06 5.01778e-06 -5.90788e-09 -0.205509 -0.279272 0.445108 321.006 14.8625 -56.6387 
641 74.6855 0.0825604 0.155325 -0.00187496 -0.000829725 2.18891e-05 0.138101 0.0611136 -2193.05 -0 -0 -0 
170 189.71 0.1048 0.102212 -2.48243e-06 8.34176e-07 -1.77977e-08 -0.705474 0.302406 55.6273 120.234 14.644 -51.539 
920 42.762 0.110709 0.136642 0.000228513 -9.58281e-05 -2.31548e-06 -0.000666838 0.000279641 24.9314 -0 -0 -0 
1016 32.3635 0.114083 0.152784 0.000533774 0.000716961 -3.22972e-05 -0.00321833 -0.00432284 114.093 -0 -0 -0 
243 163.424 0.121773 0.121635 -2.88085e-05 -1.00047e-05 -1.40011e-08 0.000151114 5.24794e-05 32.1587 -0 -0 -0 
206 174.358 0.13663 0.0961672 -2.03207e-05 7.38306e-06 1.23661e-07 8.60181e-05 -3.12527e-05 -368.024 -0 -0 -0 
845 51.0355 0.133005 0.141354 2.78679e-05 -0.000254984 5.45379e-06 -0.000119907 0.00109712 -119.141 -0 -0 -0 
288 146.281 0.142501 0.147428 -1.38015e-06 -2.64545e-07 -2.86552e-07 2.6728e-07 5.12317e-08 422.503 -0 -0 -0 
122 220.171 0.155767 0.10493 2.3895e-05 -7.59779e-06 2.00685e-08 -0.000187047 5.94746e-05 -151.855 -0 -0 -0 
398 113.132 0.162789 0.156792 -2.86829e-05 1.74994e-05 5.75474e-07 7.9439e-05 -4.84657e-05 -303.558 -0 -0 -0 
465 101.451 0.152084 0.173566 -2.09139e-05 2.49836e-05 7.25997e-07 4.51674e-05 -5.39567e-05 -247.647 -0 -0 -0 
222 168.706 0.174633 0.0964028 -1.14745e-05 4.25163e-06 -1.74383e-07 2.57378e-05 -9.53655e-06 454.883 -0 -0 -0 
1022 30.9205 0.158504 0.176508 -2.07329e-05 2.35914e-05 -2.40497e-06 4.00944e-06 -4.56223e-06 7.07896 -0 -0 -0 
377 118.26 0.188664 0.0975938 -1.11961e-05 -7.3044e-06 1.51109e-07 1.34809e-05 8.79499e-06 -95.1732 -0 -0 -0 
1021 31.1785 0.180814 0.124231 -0.000911728 0.00112341 1.65117e-05 0.00825836 -0.0101757 -50.2443 -0 -0 -0 
451 104.316 0.190184 0.135593 -5.50246e-05 -1.12123e-06 1.73018e-07 0.000212232 4.32463e-06 -65.9735 -0 -0 -0 
132 213.582 0.178266 0.170793 -3.12013e-05 2.73156e-05 -2.58036e-07 0.000380126 -0.000332787 1729.07 -0 -0 -0 
237 164.23 0.19667 0.177693 1.33726e-05 -1.58588e-05 -1.02097e-07 -4.81865e-05 5.7145e-05 239.165 -0 -0 -0 
378 117.935 0.22272 0.122845 -0.000137143 -0.00106277 2.48451e-05 0.013164 0.102013 -15477 -0 -0 -0 
302 142.435 0.200573 0.113949 -7.62962e-05 -3.7121e-05 -4.19566e-07 0.000845821 0.000411524 556.085 -0 -0 -0 
663 71.1585 0.204558 0.148132 2.51218e-06 -2.60799e-05 3.04627e-08 -2.14645e-06 2.22831e-05 -2.51506 -0 -0 -0 
485 97.799 0.209378 0.171816 1.94779e-05 -1.56863e-05 1.4659e-07 -3.0006e-05 2.4165e-05 -43.1832 -0 -0 -0 
484 98.1295 0.212321 0.116236 4.3499e-05 -0.00207681 -1.93898e-05 -0.00560369 0.267541 5789.55 -0 -0 -0 
986 35.6465 0.227138 0.144296 -0.00183944 0.000293709 -4.72332e-05 0.0280398 -0.00447721 245.577 -0 -0 -0 
1436 99.946 0.0146698 0.189668 0 0 0 0 0 0 -0 -0 -0 
1437 99.946 0.0146698 0.224149 0 0 0 0 0 0 -0 -0 -0 
1438 99.946 0.0146698 0.258631 0 0 0 0 0 0 -0 -0 -0 
1461 99.946 0.00488823 0.189668 0 0 0 0 0 0 -0 -0 -0 
1462 99.946 0.00488823 0.224149 0 0 0 0 0 0 -0 -0 -0 
1463 99.946 0.00488823 0.258631 0 0 0 0 0 0 -0 -0 -0 
534 89.4145 0.0230409 0.205572 -0.000365017 -0.000282845 4.18091e-06 0.00867893 0.00672513 -860.551 -0 -0 -0 
493 95.5075 0.0255513 0.23744 0.00255896 -0.000287809 -2.89529e-05 -0.38711 0.0435387 7757.38 -0 -0 -0 
738 62.6045 0.0346167 0.224647 0.00560485 0.000495463 0.000142535 -0.796036 -0.0703688 -7050.44 -0 -0 -0 
256 158.222 0.0509664 0.217802 -1.40589e-05 1.00985e-05 1.09163e-07 -0.115227 0.0357102 -137.368 -11.0848 214.679 113.903 
344 127.026 0.0673449 0.201254 0.000184899 -0.000109169 2.17423e-06 -0.00412572 0.00243592 -1822.85 -0 -0 -0 
732 63.162 0.0614825 0.22689 6.74388e-06 -7.49763e-05 -1.59754e-06 -1.30437e-05 0.000145015 81.8743 -0 -0 -0 
697 67.3655 0.0705232 0.232842 -6.34126e-05 -1.96041e-05 -3.04569e-07 0.000123013 3.80296e-05 20.198 -0 -0 -0 
338 128.698 0.0798799 0.199736 0.000241047 -0.00120363 -1.18545e-05 -0.0315631 0.157605 10472.3 -0 -0 -0 
353 125.013 0.0822969 0.243622 0.000729494 -0.000870455 7.16302e-06 -0.0833884 0.0995018 -5633.66 -0 -0 -0 
50 298.006 0.100761 0.185091 -6.98828e-06 9.08297e-06 2.59302e-08 4.58054e-05 -5.95353e-05 -658.536 -0 -0 -0 
946 39.774 0.109171 0.235703 -3.80536e-05 -3.00625e-05 -8.65818e-07 1.88019e-05 1.48536e-05 6.97746 -0 -0 -0 
392 115.04 0.118901 0.244392 -8.75926e-06 -1.6851e-05 -5.92129e-08 1.41785e-05 2.72765e-05 33.3953 -0 -0 -0 
91 247.338 0.127419 0.189602 -1.09151e-05 -1.22479e-05 8.59733e-08 7.05524e-05 7.91672e-05 -1036.1 -0 -0 -0 
368 120.403 0.137211 0.242799 -4.25879e-05 4.32848e-05 5.94691e-08 0.000241445 -0.000245396 -40.2452 -0 -0 -0 
725 63.802 0.128165 0.243183 7.09058e-05 -1.62412e-05 -1.58802e-06 -0.00013522 3.09725e-05 84.7356 -0 -0 -0 
83 260.175 0.155681 0.234612 -2.57535e-05 2.60187e-05 -2.6186e-07 0.000411017 -0.000415249 3863.72 -0 -0 -0 
634 75.241 0.170942 0.2134 1.10188e-06 9.41042e-05 1.29817e-06 -3.78082e-06 -0.000322895 -133.975 -0 -0 -0 
337 128.97 0.17915 0.233467 4.01622e-06 9.84592e-05 -5.88799e-07 -4.23951e-05 -0.00103933 524.561 -0 -0 -0 
67 276.299 0.198136 0.253528 3.23452e-05 2.57458e-05 -3.60095e-08 0.657291 0.263157 807.45 239.65 -18.9627 73.2152 
647 73.401 0.206351 0.20041 2.09069e-05 -3.91053e-05 -4.03851e-07 -3.2168e-05 6.01687e-05 37.7488 -0 -0 -0 
16 402.013 0.229847 0.219168 5.11315e-05 8.68665e-05 1.83783e-07 -0.323558 -0.296923 -15376.5 366.745 -32.4618 57.9332 
1439 99.946 0.0146698 0.293112 0 0 0 0 0 0 -0 -0 -0 
1440 99.946 0.0146698 0.327593 0 0 0 0 0 0 -0 -0 -0 
1441 99.946 0.0146698 0.362075 0 0 0 0 0 0 -0 -0 -0 
1464 99.946 0.00488823 0.293112 0 0 0 0 0 0 -0 -0 -0 
1465 99.946 0.00488823 0.327593 0 0 0 0 0 0 -0 -0 -0 
1466 99.946 0.00488823 0.362075 0 0 0 0 0 0 -0 -0 -0 
188 182.536 0.0284711 0.325384 1.05739e-06 2.27084e-05 -0.000111192 -5.15817e-06 -0.000110776 397504 -0 -0 -0 
13 418.142 0.0613965 0.310123 -8.46444e-06 7.87045e-06 -5.57086e-08 0.409474 -0.346566 5514.51 48.5661 156.111 60.6461 
772 59.6565 0.121102 0.273506 7.90756e-05 -2.52317e-05 -1.50503e-06 -0.000150438 4.80024e-05 61.3833 -0 -0 -0 
20 389.185 0.100837 0.303577 -9.66065e-06 -1.75368e-05 -5.43844e-09 -0.00876734 0.00726141 399.239 3.61122 0.13135 -2.78982 
801 56.288 0.121221 0.332351 0.00148959 -0.00272949 -3.91428e-05 -0.0945129 0.173183 1265.29 -0 -0 -0 
617 78.241 0.11632 0.362876 -0.00067628 0.00061162 1.00522e-05 0.0243116 -0.0219871 -1213.03 -0 -0 -0 
1026 30.3625 0.13299 0.277235 -0.00252009 -0.00345808 4.72873e-05 0.0640221 0.0878514 -129.41 -0 -0 -0 
381 117.174 0.142414 0.279843 -2.61648e-05 4.34871e-05 2.41313e-07 0.000117418 -0.000195154 -146.48 -0 -0 -0 
372 119.472 0.125715 0.303474 -9.60859e-06 3.14538e-05 4.28743e-07 2.90497e-05 -9.50944e-05 -281.278 -0 -0 -0 
104 234.578 0.139651 0.339703 -1.92285e-05 4.46159e-05 -1.50529e-07 0.102084 0.0551516 1452.1 13.8296 15.4346 7.60024 
875 47.745 0.153542 0.353988 0.000701757 -0.00106358 7.43308e-06 -0.0131279 0.0198965 -124.381 -0 -0 -0 
501 94.5575 0.154364 0.296254 -3.10264e-05 0.000895873 -9.94154e-06 0.00160152 -0.0462433 2559.24 -0 -0 -0 
577 83.744 0.155171 0.332023 6.9774e-06 -0.00128533 -1.13032e-05 -0.000405065 0.0746181 1790.16 -0 -0 -0 
516 91.8 0.162425 0.348344 -0.000364363 -0.000642366 1.52277e-05 0.0146042 0.025747 -3482.4 -0 -0 -0 
155 195.869 0.16855 0.298833 1.78161e-05 -4.75622e-06 7.85939e-08 -8.11731e-05 2.16701e-05 -372.499 -0 -0 -0 
462 101.936 0.183009 0.292649 1.96259e-05 1.00268e-05 -5.79812e-09 -2.89453e-05 -1.47881e-05 2.01591 -0 -0 -0 
820 53.662 0.190056 0.302774 2.59924e-05 2.20714e-05 3.21763e-07 0.0647614 -0.0301694 -6.39283 5.35081 4.30657 -2.49091 
195 179.557 0.208867 0.322519 3.82831e-05 7.16821e-05 6.41363e-07 -0.000645976 -0.00120954 -2146.78 -0 -0 -0 
977 37.016 0.217461 0.344344 -0.000147869 0.000330293 5.44683e-06 0.0004722 -0.00105475 -32.9288 -0 -0 -0 
899 45.283 0.220037 0.357622 0.000381009 0.000624406 -1.08816e-06 -0.0036805 -0.00603169 14.7336 -0 -0 -0 
301 142.442 0.224271 0.310986 4.90505e-05 0.000120982 -4.6372e-07 -0.00083674 -0.0020638 614.727 -0 -0 -0 
426 107.999 0.227406 0.352744 0.00028367 7.40669e-05 -9.64439e-06 -0.00624727 -0.00163118 4225.01 -0 -0 -0 
508 93.095 0.235656 0.31718 1.15319e-05 0.000373674 3.37175e-06 -0.000240634 -0.00779739 -815.52 -0 -0 -0 
421 109.114 0.238021 0.35385 0.000310293 -0.000515906 4.50149e-06 -0.0143237 0.0238151 -2054.72 -0 -0 -0 
538 88.793 0.241625 0.293926 6.46428e-05 0.000420112 -4.39754e-06 -0.00139517 -0.00906721 880.234 -0 -0 -0 
596 81.091 0.245944 0.322698 0.000575404 0.000891369 -1.00192e-05 -0.0258535 -0.0400501 1395.08 -0 -0 -0 
1442 99.946 0.0146698 0.396556 0 0 0 0 0 0 17.1833 -1.6842 6.1225 
1443 99.946 0.0146698 0.431037 0 0 0 0 0 0 -0 -0 -0 
1467 99.946 0.00488823 0.396556 0 0 0 0 0 0 -0 -0 -0 
1468 99.946 0.00488823 0.431037 0 0 0 0 0 0 -0 -0 -0 
305 141.152 0.0392083 0.366518 1.144e-05 3.54779e-05 -7.60253e-08 0.103814 0.00625888 86.9448 13.6892 9.17848 -1.77675 
291 145.502 0.0262442 0.385332 6.37548e-06 2.31763e-05 1.65132e-07 -0.145237 -0.0518175 -225.468 17.1833 -1.6842 6.1225 
656 72.254 0.0353007 0.405136 1.6476e-05 4.26672e-05 -4.87336e-07 -2.53371e-05 -6.56142e-05 42.771 -0 -0 -0 
183 183.864 0.0281203 0.443138 4.13202e-05 -0.000154052 -7.5787e-07 -0.00143487 0.00534957 2789.04 -0 -0 -0 
72 269.479 0.0512566 0.423161 3.15463e-05 2.04012e-05 -5.34109e-08 -0.212031 0.129223 922.166 12.0955 38.2681 3.33833 
138 209.593 0.0793466 0.397926 5.85563e-06 -2.44987e-06 2.69238e-08 0.128191 -0.218052 -258.394 168.724 15.4129 -11.3172 
695 67.7165 0.0912999 0.374897 9.21973e-05 6.13175e-05 -1.85598e-06 -0.000301481 -0.000200505 125.668 -0 -0 -0 
28 358.875 0.105465 0.431516 1.2385e-05 -2.03475e-05 -6.88097e-08 -0.400879 0.129763 3590.67 120.143 -11.3808 -26.7585 
872 47.9055 0.129337 0.388566 0.00384149 -0.00277819 5.07276e-05 -0.269171 0.194666 -860.319 -0 -0 -0 
379 117.877 0.128714 0.425211 1.32532e-05 -9.06319e-06 3.05439e-07 -0.0261042 -0.0154091 -187.847 6.19975 -0.28201 3.66542 
23 380.745 0.152945 0.43488 8.7361e-06 3.08457e-05 1.08963e-08 -0.102015 -0.056843 -762.73 13.8296 15.4346 7.60024 
24 379.123 0.186163 0.376119 9.38656e-06 2.40621e-05 -9.14992e-09 -0.00329084 0.00162724 609.533 0.267095 0.547247 -0.191849 
867 48.8175 0.19337 0.451705 0.000134216 0.00238134 -3.89091e-05 -0.00491327 -0.0871741 711.586 -0 -0 -0 
274 149.688 0.212022 0.379262 2.5436e-05 -6.11508e-05 -3.45162e-08 -0.000243098 0.000584433 55.8013 -0 -0 -0 
996 34.834 0.221565 0.370349 0.000639859 0.000514452 2.49154e-05 -0.00410535 -0.00330074 -118.128 -0 -0 -0 
259 156.106 0.203314 0.445838 -1.1204e-05 1.11874e-05 -3.99899e-07 2.78408e-05 -2.77996e-05 764.719 -0 -0 -0 
404 111.974 0.247866 0.369637 7.35081e-05 3.62941e-05 6.10268e-07 -0.00048661 -0.00024026 -308.932 -0 -0 -0 
4 454.224 0.233109 0.452259 -8.06176e-06 -5.07988e-06 1.05532e-07 2.00495 0.181593 -13941.3 560.736 -29.0988 50.7717 
1444 99.946 0.0146698 0.465519 0 0 0 0 0 0 -0 -0 -0 
1445 99.946 0.0146698 0.5 0 0 0 0 0 0 -0 -0 -0 
1446 99.946 0.0146698 0.534481 0 0 0 0 0 0 -0 -0 -0 
1469 99.946 0.00488823 0.465519 0 0 0 0 0 0 -0 -0 -0 
1470 99.946 0.00488823 0.5 0 0 0 0 0 0 -0 -0 -0 
1471 99.946 0.00488823 0.534481 0 0 0 0 0 0 -0 -0 -0 
324 135.178 0.0261687 0.500477 1.70657e-06 -8.6591e-05 -1.52104e-06 -1.73939e-05 0.000882563 1635.45 -0 -0 -0 
886 46.3815 0.035391 0.494762 -0.000341695 0.00017758 8.17354e-06 0.00182301 -0.000947425 -121.804 -0 -0 -0 
873 47.786 0.0328587 0.479417 -1.09632e-05 -0.000129618 2.69809e-06 2.09727e-05 0.00024796 -45.3036 -0 -0 -0 
894 45.751 0.0333686 0.52447 -0.00100998 -0.00161278 -2.03916e-05 0.0259084 0.0413717 287.692 -0 -0 -0 
584 83.1805 0.0397364 0.511021 -0.000443613 0.000274776 -3.5995e-06 0.010315 -0.00638917 554.884 -0 -0 -0 
450 104.595 0.0401826 0.474502 3.21067e-06 -5.91635e-07 7.30127e-07 -7.38531e-07 1.3609e-07 -281.395 -0 -0 -0 
299 142.812 0.050949 0.494237 1.1674e-05 2.00981e-05 2.39889e-07 -0.0204179 -0.00953581 -288.378 4.10361 66.4356 -4.64547 
627 76.3735 0.0622341 0.527645 3.49685e-05 3.37455e-05 5.21422e-07 -6.38359e-05 -6.16033e-05 -57.126 -0 -0 -0 
160 193.203 0.0671511 0.484501 3.14887e-05 3.10646e-05 -6.10115e-08 -0.000334835 -0.000330326 273.742 -0 -0 -0 
789 57.615 0.0675328 0.541477 0.00076138 -0.000747545 -1.52595e-05 -0.0173679 0.0170523 541.449 -0 -0 -0 
314 138.286 0.0814331 0.457453 1.3608e-05 -2.2227e-06 -1.54152e-07 -2.31081e-05 3.77442e-06 181.525 -0 -0 -0 
854 50.229 0.0772428 0.50678 0.000334685 -0.000437471 -1.20329e-05 -0.00299539 0.00391531 246.639 -0 -0 -0 
270 152.684 0.0893797 0.499071 2.32991e-05 -1.17474e-05 1.00462e-08 -9.12758e-05 4.60213e-05 -17.5812 -0 -0 -0 
89 254.387 0.105453 0.540488 1.80419e-05 -3.74785e-06 4.46501e-08 -0.000138558 2.87828e-05 -602.11 -0 -0 -0 
856 50.0215 0.118195 0.487823 5.76224e-05 0.000143878 -2.80581e-06 -0.000143915 -0.000359343 56.5664 -0 -0 -0 
438 105.992 0.121609 0.515649 -3.90916e-06 -4.97426e-05 -6.85179e-07 1.41123e-05 0.000179574 278.465 -0 -0 -0 
890 46.0975 0.120157 0.541612 1.60605e-05 -1.05426e-05 -1.2141e-07 -4.22263e-06 2.77186e-06 1.76538 -0 -0 -0 
224 167.377 0.128152 0.474365 3.55729e-05 -6.36278e-05 -1.45703e-07 -0.000467867 0.000836854 368.236 -0 -0 -0 
369 120.377 0.132555 0.521488 -2.4237e-06 -5.1112e-05 5.34575e-07 1.15739e-05 0.000244075 -361.457 -0 -0 -0 
653 72.7545 0.138802 0.495273 0.000240545 0.000228717 -3.37364e-06 -0.00272181 -0.00258797 304.377 -0 -0 -0 
593 81.6035 0.141992 0.531789 -1.72496e-05 -3.23851e-06 -1.74871e-07 1.29838e-05 2.43763e-06 24.9705 -0 -0 -0 
316 137.49 0.152573 0.525844 -1.24817e-05 2.66744e-05 3.23981e-07 4.47518e-05 -9.5638e-05 -372.801 -0 -0 -0 
1023 30.752 0.161929 0.527631 -8.08036e-06 0.000301218 -8.4952e-06 1.48292e-05 -0.000552801 24.4648 -0 -0 -0 
611 79.7215 0.161891 0.507858 -2.78246e-06 4.43181e-05 -3.06306e-07 5.05729e-06 -8.05509e-05 39.8411 -0 -0 -0 
696 67.5415 0.166737 0.526643 7.61803e-06 3.48606e-05 1.91466e-07 -7.98643e-06 -3.65464e-05 -12.8306 -0 -0 -0 
650 73.111 0.167965 0.492498 -4.03097e-06 4.25778e-05 1.81848e-07 -0.0096717 -0.00796598 -17.2545 -0.607859 -0.0368459 -0.496411 
667 70.7475 0.17261 0.514822 1.09702e-05 4.07302e-05 -8.72977e-08 -1.49165e-05 -5.53818e-05 7.0424 -0 -0 -0 
823 52.856 0.174109 0.494105 -4.15534e-06 4.42535e-05 -2.19728e-07 0.00968096 0.0078679 5.14378 -0.607859 -0.0368459 -0.496411 
636 75.19 0.19641 0.478288 0.00343688 0.00375655 0.000169746 -0.637145 -0.696407 -17470.8 -0 -0 -0 
284 147.453 0.177643 0.461796 2.74164e-06 2.17326e-05 7.12503e-08 0.003058 -0.0022692 -108.142 0.267095 0.547247 -0.191849 
320 136.613 0.182544 0.507624 6.76343e-06 2.02621e-05 -1.07693e-07 -1.73652e-05 -5.2023e-05 120.79 -0 -0 -0 
922 42.65 0.186515 0.473429 -0.0036109 -0.0035268 -0.000107524 0.213516 0.208544 1145.65 -0 -0 -0 
866 48.826 0.218208 0.521275 -7.78732e-06 -4.60295e-06 -9.9241e-07 1.08156e-06 6.3929e-07 18.1622 -0 -0 -0 
442 105.7 0.222972 0.54196 -8.14355e-06 -2.53094e-06 4.72491e-07 4.99694e-06 1.553e-06 -189.918 -0 -0 -0 
395 114.466 0.249996 0.530169 -0.000195646 0.000138312 -3.49088e-05 0.0039556 -0.00279642 19298.1 -0 -0 -0 
1447 99.946 0.0146698 0.568963 0 0 0 0 0 0 -0 -0 -0 
1448 99.946 0.0146698 0.603444 0 0 0 0 0 0 -0 -0 -0 
1472 99.946 0.00488823 0.568963 0 0 0 0 0 0 -0 -0 -0 
1473 99.946 0.00488823 0.603444 0 0 0 0 0 0 -0 -0 -0 
456 103.593 0.0246327 0.59682 0.000169486 8.59658e-05 -2.0252e-06 -0.0022261 -0.00112911 751.04 -0 -0 -0 
251 159.387 0.0263809 0.551793 5.0819e-06 1.18313e-05 7.70024e-08 -1.07062e-05 -2.49254e-05 -160.026 -0 -0 -0 
981 36.0945 0.0327128 0.589178 -0.000688417 -0.00185168 3.95299e-06 0.0114108 0.0306924 -21.6055 -0 -0 -0 
609 80.063 0.0330337 0.609179 5.95277e-05 -0.00187613 -1.07157e-05 -0.00461284 0.145382 1417.82 -0 -0 -0 
48 300.637 0.0482728 0.57011 5.86498e-06 1.93758e-05 -9.4503e-08 0.0715191 -0.0903912 2536.24 13.7761 49.5379 -10.4987 
418 109.996 0.0271024 0.635054 0.00018537 -0.000512569 3.32581e-06 -0.00787298 0.0217697 -1567.76 -0 -0 -0 
416 110.237 0.067756 0.587456 1.48195e-05 -1.60791e-05 -7.25619e-08 -0.0380525 -0.0216657 35.2925 4.26694 -4.88418 -1.22109 
807 55.3355 0.0741778 0.604846 9.25993e-06 -1.67502e-05 4.46358e-07 -3.495e-06 6.32207e-06 -13.4764 -0 -0 -0 
862 49.379 0.0523834 0.628725 0.000581249 -8.94185e-05 -7.59467e-06 -0.00536775 0.000825766 145.396 -0 -0 -0 
130 214.603 0.0805379 0.554194 1.77263e-05 -1.21412e-05 6.00836e-08 -0.000112964 7.73724e-05 -410.367 -0 -0 -0 
146 201.533 0.0855348 0.623779 6.0154e-07 1.55912e-06 -2.21838e-08 -0.0103238 -0.00989237 116.188 -2.40992 -0.356815 -2.30911 
814 54.457 0.0928991 0.570102 1.58572e-05 -7.01179e-06 -1.36272e-07 -5.251e-06 2.32191e-06 3.85918 -0 -0 -0 
555 86.9835 0.0964315 0.591069 1.18284e-05 -1.03245e-06 1.21703e-05 -6.84346e-06 5.97335e-07 -2243.48 -0 -0 -0 
70 270.887 0.108369 0.636218 -1.07105e-07 6.14533e-06 3.36362e-08 0.127736 -0.0748351 -607.933 23.4524 -0.090655 -20.968 
486 97.4265 0.117906 0.582346 5.35829e-06 9.55479e-06 7.18214e-08 0.00734668 -0.00477393 -21.3265 0.683286 -0.0156605 -0.443193 
703 66.4675 0.122526 0.559245 3.27843e-06 1.56649e-05 1.88717e-07 -1.49288e-06 -7.13324e-06 -11.861 -0 -0 -0 
543 88.611 0.126999 0.583478 5.55972e-06 3.85532e-06 -1.43253e-07 -0.00735217 0.00476621 27.9946 0.683286 -0.0156605 -0.443193 
218 169.698 0.129915 0.635135 -1.28827e-07 4.61636e-06 -6.27017e-08 -0.117234 0.0769635 152.597 25.8796 -0.86235 -19.4108 
590 81.9015 0.129679 0.554935 4.69103e-06 2.39219e-05 -5.47128e-08 -4.9402e-06 -2.51926e-05 7.92739 -0 -0 -0 
795 57.1965 0.132922 0.597478 4.29082e-06 5.86029e-06 2.68115e-07 -6.56616e-07 -8.96788e-07 -9.24001 -0 -0 -0 
721 64.537 0.134081 0.574882 1.03998e-05 1.785e-05 4.25826e-07 -5.76296e-06 -9.89146e-06 -23.7871 -0 -0 -0 
628 76.1205 0.137399 0.553638 1.35075e-05 1.95577e-05 -3.14655e-07 -1.19809e-05 -1.73473e-05 34.0185 -0 -0 -0 
76 268.123 0.148825 0.599126 3.49787e-06 3.28403e-05 2.03233e-08 0.00203696 -0.0118919 -340.004 0.283337 1.52276 -1.54375 
401 112.642 0.162083 0.553024 2.11675e-06 3.14401e-05 -6.58263e-08 -0.0020959 0.0113088 33.3772 0.283337 1.52276 -1.54375 
403 112.061 0.167128 0.58757 2.34931e-06 3.65993e-05 -1.47053e-07 -6.96817e-06 -0.000108556 74.6733 -0 -0 -0 
321 135.938 0.174236 0.551879 2.40575e-06 4.22497e-05 1.34086e-07 0.0447168 0.0054109 -150.956 4.00712 0.456153 0.503807 
615 78.4665 0.175847 0.599165 5.53121e-06 2.81668e-05 9.51755e-08 0.0065748 0.00241347 -11.934 0.963455 0.518532 0.358018 
441 105.765 0.182999 0.579849 9.94269e-06 3.39254e-05 -2.78427e-07 -0.00740471 -0.0724809 104.815 11.1789 6.65052 -12.3175 
36 320.745 0.201782 0.547859 4.87746e-06 2.34411e-05 5.55162e-08 1.23036 -0.0325356 -2140.02 283.793 -6.53636 -34.408 
472 100.312 0.212948 0.626153 2.15084e-05 4.36384e-05 2.50511e-07 -6.78124e-05 -0.000137585 -81.6792 -0 -0 -0 
889 46.2905 0.211424 0.601295 5.5282e-06 -2.68293e-06 5.19817e-08 -4.68794e-07 2.27514e-07 -0.768585 -0 -0 -0 
178 185.875 0.223124 0.592231 1.87146e-05 -2.16326e-08 -2.42326e-07 0.0891896 -0.0744756 650.07 644.759 -37.4389 -68.629 
678 69.9525 0.22454 0.636147 -0.000913287 0.000155421 1.10587e-05 0.0266639 -0.00453759 -852.688 -0 -0 -0 
855 50.1195 0.244366 0.551112 0.00258918 0.00388618 -1.02111e-06 -0.1956 -0.293583 20.7478 -0 -0 -0 
620 77.747 0.238749 0.562955 -0.00125439 0.000391301 0.000476972 0.0641655 -0.0200161 -56117.9 -0 -0 -0 
1449 99.946 0.0146698 0.637925 0 0 0 0 0 0 -0 -0 -0 
1450 99.946 0.0146698 0.672407 0 0 0 0 0 0 -0 -0 -0 
1451 99.946 0.0146698 0.706888 0 0 0 0 0 0 -0 -0 -0 
1474 99.946 0.00488823 0.637925 0 0 0 0 0 0 -0 -0 -0 
1475 99.946 0.00488823 0.672407 0 0 0 0 0 0 -0 -0 -0 
1476 99.946 0.00488823 0.706888 0 0 0 0 0 0 -0 -0 -0 
927 42.1745 0.0206827 0.694462 -0.000131947 -0.000268872 -2.77666e-06 0.000452694 0.000922464 28.2876 -0 -0 -0 
282 148.015 0.0258684 0.724947 -5.8851e-06 -1.83326e-05 6.771e-08 1.59879e-05 4.98039e-05 -104.652 -0 -0 -0 
454 103.816 0.0290402 0.682803 -0.000134815 -0.000104407 5.6711e-07 0.00159565 0.00123575 -212.128 -0 -0 -0 
145 201.856 0.0414457 0.653336 -5.63165e-06 1.60512e-05 1.99994e-07 0.0997947 -0.0681669 -1058.14 7.6882 16.7141 -4.71074 
154 196.956 0.0427296 0.722843 -4.66537e-06 1.61212e-05 1.25554e-07 1.9561e-05 -6.7593e-05 -608.389 -0 -0 -0 
157 195.546 0.0666702 0.640038 5.37547e-06 -1.67666e-05 8.92969e-08 0.0175617 0.0295385 -416.594 0.195203 -4.49318 0.327087 
445 105.329 0.0532342 0.686169 -5.23367e-06 1.55475e-05 -2.46219e-07 -0.0142816 -0.000846672 96.7214 1.72194 0.0788811 0.0998432 
713 65.1835 0.0544801 0.656646 -1.20266e-05 -5.91509e-05 2.47845e-06 1.98647e-05 9.77009e-05 -144.08 -0 -0 -0 
932 41.6365 0.058776 0.670023 2.58532e-06 5.72255e-06 6.25104e-08 -1.81254e-07 -4.01202e-07 -0.604955 -0 -0 -0 
503 94.3365 0.0629808 0.688296 -3.09151e-06 -1.90485e-05 -9.21403e-08 3.41932e-06 2.10683e-05 23.4986 -0 -0 -0 
120 221.565 0.0804077 0.694453 -1.24595e-05 -1.7836e-06 -4.82763e-08 -0.0466004 0.000509659 380.566 7.49952 0.0578615 -0.0807926 
425 108.136 0.0963524 0.685977 -1.29071e-05 -4.75173e-06 7.1154e-08 1.33691e-05 4.92181e-06 -31.3296 -0 -0 -0 
956 38.4285 0.0925771 0.707459 1.94921e-06 3.17535e-06 -1.52242e-08 -6.90715e-08 -1.12521e-07 0.106911 -0 -0 -0 
769 59.936 0.0923904 0.724405 -2.61076e-05 3.08518e-06 4.85678e-07 1.58791e-05 -1.87646e-06 -20.1824 -0 -0 -0 
289 145.846 0.123448 0.684578 7.20201e-06 5.86268e-06 1.20626e-07 -9.16222e-06 -7.45835e-06 -175.749 -0 -0 -0 
191 180.647 0.139416 0.685402 1.55841e-06 3.49217e-06 4.76796e-08 0.0575592 -0.0311055 -171.516 9.96359 -1.25241 -7.44349 
964 38.1215 0.139725 0.647509 -0.000499206 -6.43346e-05 -2.14156e-05 0.00235169 0.000303071 145.641 -0 -0 -0 
827 52.634 0.142469 0.724156 -1.81591e-05 6.09314e-06 6.62652e-08 6.20574e-06 -2.08228e-06 -1.63766 -0 -0 -0 
640 74.8195 0.148334 0.716713 -1.24091e-05 1.16304e-05 6.5779e-08 -0.023584 -0.012075 -4.92141 -0.896493 -4.49865 -0.0144039 
240 163.944 0.156266 0.686502 1.17494e-06 2.42035e-05 8.2841e-08 -0.0564943 0.0296195 -198.385 9.84506 -0.923206 -5.95171 
335 129.581 0.163716 0.643242 7.55151e-06 2.80747e-05 -4.72501e-08 -0.0310974 0.00982531 45.3223 -8.40265 0.83483 2.68074 
675 70.3075 0.166842 0.702034 9.13571e-06 3.86058e-05 -6.2047e-08 -1.15381e-05 -4.87578e-05 4.88204 -0 -0 -0 
907 44.0425 0.171822 0.724179 -1.94477e-06 2.71424e-05 -3.09763e-07 6.61115e-07 -9.22693e-06 3.75311 -0 -0 -0 
6 436.859 0.190166 0.67228 8.06838e-06 2.64151e-05 7.16775e-10 0.480718 -0.209723 -202.159 140.127 -11.8057 -60.4704 
731 63.2055 0.214075 0.654064 9.08212e-06 4.54088e-05 -2.00628e-07 -1.08208e-05 -5.41018e-05 10.3106 -0 -0 -0 
117 223.384 0.221786 0.695376 1.52467e-05 -8.22857e-06 -1.59765e-07 -0.23362 -0.280601 1150.03 223.157 82.2348 -217.101 
9 426.964 0.249659 0.641363 1.92245e-05 -9.92257e-07 1.02929e-07 -0.464249 1.17366 -11191.7 845.592 21.9977 -40.9808 
1452 99.946 0.0146698 0.741369 0 0 0 0 0 0 -0 -0 -0 
1453 99.946 0.0146698 0.775851 0 0 0 0 0 0 -0 -0 -0 
1454 99.946 0.0146698 0.810332 0 0 0 0 0 0 -0 -0 -0 
1477 99.946 0.00488823 0.741369 0 0 0 0 0 0 -0 -0 -0 
1478 99.946 0.00488823 0.775851 0 0 0 0 0 0 -0 -0 -0 
1479 99.946 0.00488823 0.810332 0 0 0 0 0 0 -0 -0 -0 
988 35.526 0.0207073 0.764484 0.000685497 0.000744499 9.49696e-06 -0.00563885 -0.0061242 -48.7129 -0 -0 -0 
428 107.451 0.0235724 0.792987 -7.37023e-06 1.34985e-05 1.38266e-07 8.42845e-06 -1.54366e-05 -59.3516 -0 -0 -0 
329 131.632 0.0326247 0.766895 -5.68219e-06 1.5563e-05 -9.2819e-08 1.05053e-05 -2.87732e-05 89.7339 -0 -0 -0 
870 48.2805 0.0367266 0.808838 0.00369336 0.00119495 3.42545e-05 -0.215233 -0.0696365 -599.347 -0 -0 -0 
358 124.525 0.0447738 0.7778 -2.79118e-05 1.91695e-05 -1.04023e-08 9.43842e-05 -6.48218e-05 8.05432 -0 -0 -0 
770 59.9345 0.0475358 0.808082 -1.18294e-05 2.36433e-05 -1.52518e-07 7.23503e-06 -1.44606e-05 6.33726 -0 -0 -0 
983 36.01 0.0525987 0.763047 -1.91352e-05 -1.63292e-05 9.51054e-07 4.01991e-06 3.43043e-06 -5.14958 -0 -0 -0 
207 173.909 0.0646827 0.734154 -2.29603e-05 -1.64458e-05 1.65191e-07 0.0642612 0.0567647 -487.882 6.53167 9.8054 -3.24573 
181 184.575 0.0592682 0.792941 -1.78477e-05 -1.47857e-05 -1.84766e-07 0.00947136 0.0930336 668.066 -3.4746 40.0003 -17.1736 
729 63.3895 0.0535931 0.746271 2.54579e-05 -8.61146e-06 1.70793e-07 -1.77055e-05 5.98911e-06 -8.88002 -0 -0 -0 
397 113.287 0.0736442 0.784633 -1.31965e-05 5.33913e-06 4.72231e-07 1.55273e-05 -6.28218e-06 -250.466 -0 -0 -0 
966 37.8745 0.072297 0.758931 -8.70821e-06 -7.51944e-06 -2.36728e-08 9.25612e-07 7.99256e-07 0.15686 -0 -0 -0 
947 39.4665 0.0774367 0.808722 7.85104e-05 0.000156227 9.55285e-07 -0.000137703 -0.000274014 -7.46314 -0 -0 -0 
475 99.567 0.085622 0.811576 -5.20257e-05 3.19748e-06 1.07098e-08 0.000173137 -1.06409e-05 -3.38934 -0 -0 -0 
174 187.006 0.0868974 0.762323 -1.04556e-05 1.1079e-05 -2.52966e-07 3.58732e-05 -3.80119e-05 996.227 -0 -0 -0 
726 63.675 0.0977095 0.7827 -2.9499e-05 4.67161e-05 1.36377e-06 4.25583e-05 -6.73973e-05 -72.1924 -0 -0 -0 
61 282.832 0.108752 0.737292 -1.85455e-05 5.12341e-08 -1.02234e-09 0.00663937 0.00462599 22.3551 1.4656 0.0111363 1.04927 
448 104.683 0.103877 0.801932 -8.32985e-06 2.28553e-05 -1.13594e-06 1.43009e-05 -3.92386e-05 439.272 -0 -0 -0 