 Input file for LIGGGHTS, created with Matlab function LIGGGHTSinit_fromdump.m

 1534 atoms

    2 atom types

     -10099.900      10099.900 xlo xhi
      -2900.000       2900.000 ylo yhi
       -100.000        100.000 zlo zhi

 3282 bonds

    1 bond types

   40 extra bond per atom

 Atoms

     1 1    2460.759836    1190.252800       0.000000     970.664     970.664  910.000 1
     2 1    3638.913171   -1805.511000       0.000000     970.220     970.220  910.000 1
     3 1    4723.420233   -1633.889000       0.000000     946.584     946.584  910.000 1
     4 1   -4004.388152    -167.625800       0.000000     906.130     906.130  910.000 1
     5 1    2185.012366   -1599.964800       0.000000     888.822     888.822  910.000 1
     6 1   -4944.305046    1028.461800       0.000000     871.490     871.490  910.000 1
     7 1   -2110.959899    1122.659600       0.000000     861.044     861.044  910.000 1
     8 1   -2772.685147    1673.184000       0.000000     857.736     857.736  910.000 1
     9 1   -3679.474369     812.377000       0.000000     851.750     851.750  910.000 1
    10 1    5818.330192    -418.296000       0.000000     847.116     847.116  910.000 1
    11 1    -189.029728    1163.346600       0.000000     846.244     846.244  910.000 1
    12 1    3469.537848     521.472200       0.000000     843.378     843.378  910.000 1
    13 1   -7549.089456   -1224.971600       0.000000     834.150     834.150  910.000 1
    14 1    7959.751390    -280.511200       0.000000     818.830     818.830  910.000 1
    15 1     -50.438901   -1020.156200       0.000000     803.200     803.200  910.000 1
    16 1   -4279.852825   -1492.746000       0.000000     801.976     801.976  910.000 1
    17 1    6350.190926     639.502200       0.000000     798.506     798.506  910.000 1
    18 1    6456.946869   -1753.235600       0.000000     779.510     779.510  910.000 1
    19 1     603.711423     178.222400       0.000000     777.778     777.778  910.000 1
    20 1   -6744.612221   -1192.056600       0.000000     776.384     776.384  910.000 1
    21 1   -2230.562915   -1935.291800       0.000000     774.198     774.198  910.000 1
    22 1   -3969.624296    1570.582000       0.000000     772.006     772.006  910.000 1
    23 1   -5632.108236    -342.043400       0.000000     759.548     759.548  910.000 1
    24 1   -4979.068902    -726.566000       0.000000     756.312     756.312  910.000 1
    25 1    5727.370493   -1526.618000       0.000000     748.452     748.452  910.000 1
    26 1    7785.043320   -2014.496600       0.000000     731.708     731.708  910.000 1
    27 1    -391.552923      82.655800       0.000000     730.914     730.914  910.000 1
    28 1   -6594.325709    -461.291400       0.000000     715.920     715.920  910.000 1
    29 1    2519.319056     166.175800       0.000000     707.766     707.766  910.000 1
    30 1   -7957.711210   -1872.216800       0.000000     696.872     696.872  910.000 1
    31 1   -3597.766178   -1218.220400       0.000000     668.680     668.680  910.000 1
    32 1   -1249.620227     765.837800       0.000000     663.418     663.418  910.000 1
    33 1    5844.307135    1815.956800       0.000000     659.698     659.698  910.000 1
    34 1    4400.243633    1219.189000       0.000000     656.346     656.346  910.000 1
    35 1   -1414.228398   -1047.207400       0.000000     644.280     644.280  910.000 1
    36 1   -4680.233061     207.367400       0.000000     639.854     639.854  910.000 1
    37 1    4271.065912    -982.885400       0.000000     638.894     638.894  910.000 1
    38 1    4426.644771       6.861400       0.000000     638.128     638.128  910.000 1
    39 1   -4108.275724   -2191.646000       0.000000     637.448     637.448  910.000 1
    40 1    7409.125042    1641.400000       0.000000     633.102     633.102  910.000 1
    41 1    6729.623969    2116.037200       0.000000     632.176     632.176  910.000 1
    42 1    2950.241389    -665.039600       0.000000     630.670     630.670  910.000 1
    43 1    7157.496133    1063.267600       0.000000     627.966     627.966  910.000 1
    44 1   -2423.733602     450.515000       0.000000     621.822     621.822  910.000 1
    45 1    1794.065437     761.621200       0.000000     614.566     614.566  910.000 1
    46 1    1066.165644     891.831200       0.000000     608.430     608.430  910.000 1
    47 1    8225.742356    1498.111000       0.000000     605.706     605.706  910.000 1
    48 1   -7721.292751     380.375600       0.000000     599.740     599.740  910.000 1
    49 1    5030.578392     809.152200       0.000000     598.490     598.490  910.000 1
    50 1   -6544.149406   -1847.358000       0.000000     594.492     594.492  910.000 1
    51 1   -1778.955986     409.793200       0.000000     594.034     594.034  910.000 1
    52 1   -2563.294021    -320.763200       0.000000     587.532     587.532  910.000 1
    53 1   -1872.885056    1804.878800       0.000000     584.228     584.228  910.000 1
    54 1   -3405.484282   -1982.306600       0.000000     574.236     574.236  910.000 1
    55 1    -552.201933    -549.225200       0.000000     573.102     573.102  910.000 1
    56 1   -3001.892278     594.262200       0.000000     569.764     569.764  910.000 1
    57 1    7135.639949    -577.680000       0.000000     569.476     569.476  910.000 1
    58 1    7161.899689   -2210.507600       0.000000     568.700     568.700  910.000 1
    59 1    3228.453235    1183.977200       0.000000     564.758     564.758  910.000 1
    60 1    1398.735151    -645.342800       0.000000     564.656     564.656  910.000 1
    61 1   -6602.405629    1222.541400       0.000000     564.222     564.222  910.000 1
    62 1   -5774.274428    1550.943200       0.000000     561.578     561.578  910.000 1
    63 1    1585.744899    1428.864800       0.000000     557.820     557.820  910.000 1
    64 1    3325.452674    1812.581200       0.000000     554.566     554.566  910.000 1
    65 1   -7443.222304   -2225.442600       0.000000     551.678     551.678  910.000 1
    66 1    -862.511260    1645.431000       0.000000     551.492     551.492  910.000 1
    67 1   -4946.830021   -1379.477800       0.000000     551.188     551.188  910.000 1
    68 1   -2787.956196   -1579.467600       0.000000     548.702     548.702  910.000 1
    69 1    -603.852821   -1434.653200       0.000000     541.020     541.020  910.000 1
    70 1   -6635.937297     671.355800       0.000000     540.392     540.392  910.000 1
    71 1    6790.465767      -5.353400       0.000000     539.582     539.582  910.000 1
    72 1   -7587.105479    -494.931400       0.000000     537.584     537.584  910.000 1
    73 1    1691.107056      71.705400       0.000000     537.548     537.548  910.000 1
    74 1    8530.537138      84.622000       0.000000     536.346     536.346  910.000 1
    75 1    5993.139261    1203.036000       0.000000     535.762     535.762  910.000 1
    76 1   -5764.780522     557.037800       0.000000     534.878     534.878  910.000 1
    77 1   -1017.160929     214.507200       0.000000     533.488     533.488  910.000 1
    78 1   -4404.041195    2056.210200       0.000000     531.282     531.282  910.000 1
    79 1    1804.751131   -2205.345600       0.000000     529.598     529.598  910.000 1
    80 1      53.307272     523.653000       0.000000     521.958     521.958  910.000 1
    81 1    2114.151468    -550.739000       0.000000     519.970     519.970  910.000 1
    82 1   -2582.665629   -1084.228800       0.000000     519.518     519.518  910.000 1
    83 1   -5494.042603   -1536.275000       0.000000     519.024     519.024  910.000 1
    84 1   -7620.394750    2241.879800       0.000000     517.758     517.758  910.000 1
    85 1     929.291799    -379.685400       0.000000     514.182     514.182  910.000 1
    86 1   -1079.356113   -1977.005400       0.000000     511.450     511.450  910.000 1
    87 1    2451.023532    -939.240400       0.000000     508.474     508.474  910.000 1
    88 1   -1864.380941    -688.117800       0.000000     507.480     507.480  910.000 1
    89 1   -6650.380154     147.726000       0.000000     507.476     507.476  910.000 1
    90 1   -1440.387139   -1620.450400       0.000000     503.570     503.570  910.000 1
    91 1   -6016.227633   -1587.854400       0.000000     493.414     493.414  910.000 1
    92 1    1200.110518    1843.414000       0.000000     489.988     489.988  910.000 1
    93 1    4458.035261    2187.458400       0.000000     488.988     488.988  910.000 1
    94 1    -532.305130   -1942.762200       0.000000     485.408     485.408  910.000 1
    95 1    2740.446267   -2003.697000       0.000000     484.524     484.524  910.000 1
    96 1   -6818.846486    1887.940600       0.000000     481.662     481.662  910.000 1
    97 1   -6525.323192    2268.600400       0.000000     479.936     479.936  910.000 1
    98 1    3078.207122     -34.388200       0.000000     479.820     479.820  910.000 1
    99 1    8663.492222   -1268.842800       0.000000     478.844     478.844  910.000 1
   100 1    1478.443562   -1158.764600       0.000000     474.514     474.514  910.000 1
   101 1   -1006.879231    -289.217000       0.000000     474.462     474.462  910.000 1
   102 1    1676.664199    1933.963600       0.000000     468.652     468.652  910.000 1
   103 1    8884.740631    -379.488200       0.000000     468.414     468.414  910.000 1
   104 1   -6081.998182    -790.621200       0.000000     467.960     467.960  910.000 1
   105 1    2453.972703    2103.462800       0.000000     467.826     467.826  910.000 1
   106 1    2917.800511   -1424.804800       0.000000     467.686     467.686  910.000 1
   107 1    3843.456346    1292.089200       0.000000     466.726     466.726  910.000 1
   108 1    5866.486515     234.876800       0.000000     462.778     462.778  910.000 1
   109 1     -17.957622    -384.435600       0.000000     462.508     462.508  910.000 1
   110 1    7938.299202   -1375.690400       0.000000     457.708     457.708  910.000 1
   111 1    6532.716319    -448.618400       0.000000     450.722     450.722  910.000 1
   112 1   -2787.188604   -2187.765800       0.000000     448.294     448.294  910.000 1
   113 1    6700.354459    1576.764800       0.000000     447.962     447.962  910.000 1
   114 1    6307.710747    -842.328200       0.000000     447.942     447.942  910.000 1
   115 1    3148.462027    2280.884800       0.000000     446.708     446.708  910.000 1
   116 1    5121.800689      60.766600       0.000000     446.036     446.036  910.000 1
   117 1   -4285.932965    1042.463000       0.000000     445.630     445.630  910.000 1
   118 1   -1455.799586    1428.748800       0.000000     444.524     444.524  910.000 1
   119 1   -5486.528277    2290.025600       0.000000     444.052     444.052  910.000 1
   120 1   -7184.301268    1135.245600       0.000000     442.000     442.000  910.000 1
   121 1     749.493379    -822.619800       0.000000     441.926     441.926  910.000 1
   122 1   -5868.627694   -2288.076800       0.000000     439.218     439.218  910.000 1
   123 1   -2836.637714     117.850200       0.000000     438.760     438.760  910.000 1
   124 1    4362.167010     673.513400       0.000000     437.666     437.666  910.000 1
   125 1    3810.146875    1916.331600       0.000000     436.802     436.802  910.000 1
   126 1   -3518.805160    1971.118400       0.000000     434.168     434.168  910.000 1
   127 1    3892.420661      43.587000       0.000000     432.870     432.870  910.000 1
   128 1   -2750.081571    1026.948000       0.000000     431.596     431.596  910.000 1
   129 1    5290.994213   -1129.735600       0.000000     431.288     431.288  910.000 1
   130 1   -7109.683206     236.228200       0.000000     428.110     428.110  910.000 1
   131 1    5655.600603   -2268.078400       0.000000     427.618     427.618  910.000 1
   132 1   -5203.104884   -2089.322400       0.000000     426.074     426.074  910.000 1
   133 1   -8088.153438    2185.399400       0.000000     424.878     424.878  910.000 1
   134 1    8624.425809    1091.635400       0.000000     424.234     424.234  910.000 1
   135 1   -3019.102508    2289.387600       0.000000     422.702     422.702  910.000 1
   136 1    8127.793526     994.044600       0.000000     421.290     421.290  910.000 1
   137 1    6259.938220      36.627000       0.000000     418.368     418.368  910.000 1
   138 1   -7169.494814    -727.059000       0.000000     418.118     418.118  910.000 1
   139 1   -3151.289999    1161.757400       0.000000     415.036     415.036  910.000 1
   140 1    5044.011259    2298.412400       0.000000     409.772     409.772  910.000 1
   141 1    7840.087775    1931.637800       0.000000     406.084     406.084  910.000 1
   142 1   -1735.728414    -248.999800       0.000000     405.024     405.024  910.000 1
   143 1    6217.579239    2194.772200       0.000000     403.948     403.948  910.000 1
   144 1    8626.627587    -797.853800       0.000000     403.746     403.746  910.000 1
   145 1   -7924.300741     838.604600       0.000000     402.682     402.682  910.000 1
   146 1   -7104.552457     720.887800       0.000000     402.038     402.038  910.000 1
   147 1    4818.318893     356.479600       0.000000     401.464     401.464  910.000 1
   148 1    4022.870969    2276.181000       0.000000     399.252     399.252  910.000 1
   149 1   -1440.770935    2038.584000       0.000000     398.498     398.498  910.000 1
   150 1    4094.095464   -2316.264800       0.000000     398.086     398.086  910.000 1
   151 1    4918.287704    1316.518800       0.000000     397.876     397.876  910.000 1
   152 1    4785.918414   -2302.350600       0.000000     396.186     396.186  910.000 1
   153 1    8867.490002     706.103600       0.000000     393.174     393.174  910.000 1
   154 1   -7842.612750    1435.830600       0.000000     392.906     392.906  910.000 1
   155 1   -5551.733232   -1085.081400       0.000000     390.738     390.738  910.000 1
   156 1    5532.684820    1153.272000       0.000000     390.500     390.500  910.000 1
   157 1   -7487.520465     850.419200       0.000000     390.096     390.096  910.000 1
   158 1    5368.399847    1583.968400       0.000000     389.706     389.706  910.000 1
   159 1   -1013.585564    -720.905200       0.000000     389.358     389.358  910.000 1
   160 1   -7383.996490     -80.567800       0.000000     385.420     385.420  910.000 1
   161 1   -3074.611558    -259.845800       0.000000     385.214     385.214  910.000 1
   162 1    7044.862048   -1648.499200       0.000000     385.088     385.088  910.000 1
   163 1    -736.646306    -991.260600       0.000000     384.944     384.944  910.000 1
   164 1    8287.594144   -1610.863000       0.000000     384.462     384.462  910.000 1
   165 1    1053.621568   -1101.164800       0.000000     382.950     382.950  910.000 1
   166 1    7319.538929     562.240400       0.000000     381.748     381.748  910.000 1
   167 1     616.093900    1097.708000       0.000000     381.406     381.406  910.000 1
   168 1   -3454.165800    -500.516800       0.000000     380.060     380.060  910.000 1
   169 1    5420.394132     476.104600       0.000000     380.038     380.038  910.000 1
   170 1   -6664.742212   -2318.468800       0.000000     378.452     378.452  910.000 1
   171 1   -2305.847570    -729.292000       0.000000     378.262     378.262  910.000 1
   172 1   -7219.469119    2042.945600       0.000000     377.610     377.610  910.000 1
   173 1    5293.337390    1977.475200       0.000000     373.118     373.118  910.000 1
   174 1   -7015.390540    1508.429200       0.000000     373.058     373.058  910.000 1
   175 1    8474.725091    1918.843000       0.000000     372.080     372.080  910.000 1
   176 1   -1756.655407   -2257.081600       0.000000     371.620     371.620  910.000 1
   177 1    2742.991441    1799.136800       0.000000     371.566     371.566  910.000 1
   178 1   -4286.559158     543.610800       0.000000     370.802     370.802  910.000 1
   179 1    1161.670298   -1813.445400       0.000000     370.044     370.044  910.000 1
   180 1    1147.591038     361.195000       0.000000     369.914     369.914  910.000 1
   181 1   -7525.556689    1809.188200       0.000000     368.210     368.210  910.000 1
   182 1    3910.984277    -356.137400       0.000000     367.450     367.450  910.000 1
   183 1   -8116.853314    -405.994200       0.000000     366.790     366.790  910.000 1
   184 1    4837.852100    1969.906200       0.000000     365.912     365.912  910.000 1
   185 1     456.717478     755.763200       0.000000     365.510     365.510  910.000 1
   186 1    -749.776176     934.368400       0.000000     365.148     365.148  910.000 1
   187 1    4125.647552    1669.054400       0.000000     364.912     364.912  910.000 1
   188 1   -8123.668727   -1055.489800       0.000000     364.142     364.142  910.000 1
   189 1    6699.728265   -2270.537600       0.000000     363.392     363.392  910.000 1
   190 1    7574.723002   -1185.728800       0.000000     362.724     362.724  910.000 1
   191 1   -5928.924097     973.396600       0.000000     360.372     360.372  910.000 1
   192 1    1882.298163   -1053.865800       0.000000     360.006     360.006  910.000 1
   193 1   -1094.061568    1253.124800       0.000000     359.808     359.808  910.000 1
   194 1    3584.676708    -922.403000       0.000000     359.146     359.146  910.000 1
   195 1   -4465.852583    -943.352600       0.000000     358.198     358.198  910.000 1
   196 1    3563.062922    -255.292800       0.000000     357.036     357.036  910.000 1
   197 1    4943.274856    -944.622800       0.000000     356.560     356.560  910.000 1
   198 1    7297.884743    -144.942000       0.000000     354.826     354.826  910.000 1
   199 1    7176.625344    2324.112200       0.000000     353.950     353.950  910.000 1
   200 1   -1443.639306      14.621800       0.000000     353.648     353.648  910.000 1
   201 1   -2418.623053    2164.380200       0.000000     353.354     353.354  910.000 1
   202 1   -6942.772259    2285.965600       0.000000     352.100     352.100  910.000 1
   203 1   -5894.826835    2230.784400       0.000000     351.198     351.198  910.000 1
   204 1   -3161.228300    -727.349000       0.000000     349.826     349.826  910.000 1
   205 1   -2812.519153    -716.503000       0.000000     347.962     347.962  910.000 1
   206 1   -6261.332006   -2312.726800       0.000000     347.826     347.826  910.000 1
   207 1   -7474.329996    1402.527000       0.000000     346.930     346.930  910.000 1
   208 1    -457.303272     630.512200       0.000000     346.900     346.900  910.000 1
   209 1    7798.051991     279.351200       0.000000     346.672     346.672  910.000 1
   210 1    6797.050902    -901.308400       0.000000     345.266     345.266  910.000 1
   211 1    1135.087361      -1.171600       0.000000     343.956     343.956  910.000 1
   212 1    3863.514747    -708.522200       0.000000     343.690     343.690  910.000 1
   213 1    1384.191295   -2326.560960       0.000000     343.198     343.198  910.000 1
   214 1    6674.963311    1107.724600       0.000000     341.166     341.166  910.000 1
   215 1   -6150.536103    1244.859800       0.000000     340.702     340.702  910.000 1
   216 1    8443.031605     676.454000       0.000000     340.500     340.500  910.000 1
   217 1    7325.881666     201.381800       0.000000     340.084     340.084  910.000 1
   218 1   -6197.177441     646.839200       0.000000     338.530     338.530  910.000 1
   219 1    2051.774485    2081.817200       0.000000     337.746     337.746  910.000 1
   220 1    7203.006282   -1319.587000       0.000000     337.118     337.118  910.000 1
   221 1    5402.214312   -1977.562200       0.000000     336.596     336.596  910.000 1
   222 1   -5485.134491   -2345.858140       0.000000     336.552     336.552  910.000 1
   223 1    4250.340917    -446.646400       0.000000     335.020     335.020  910.000 1
   224 1   -6164.372966    -160.230800       0.000000     333.900     333.900  910.000 1
   225 1    5101.701888    -328.210400       0.000000     332.960     332.960  910.000 1
   226 1   -2103.910169    -343.244000       0.000000     332.438     332.438  910.000 1
   227 1    6522.172023   -1201.116200       0.000000     332.402     332.402  910.000 1
   228 1   -2125.342157    2345.172000       0.000000     331.252     331.252  910.000 1
   229 1     368.323153    1354.543600       0.000000     331.074     331.074  910.000 1
   230 1    8248.083335   -1082.500400       0.000000     331.046     331.046  910.000 1
   231 1   -1972.045875   -1327.770800       0.000000     331.036     331.036  910.000 1
   232 1    7029.833397     356.752200       0.000000     328.582     328.582  910.000 1
   233 1   -7017.572118   -2336.536380       0.000000     328.442     328.442  910.000 1
   234 1   -3508.806259    2352.207400       0.000000     328.326     328.326  910.000 1
   235 1    7931.027274    -982.763600       0.000000     328.274     328.274  910.000 1
   236 1    8716.112701    1471.715200       0.000000     328.020     328.020  910.000 1
   237 1   -4899.118093   -1866.677800       0.000000     327.622     327.622  910.000 1
   238 1    4747.336796    -664.303000       0.000000     327.476     327.476  910.000 1
   239 1   -3391.910016    1508.481400       0.000000     327.262     327.262  910.000 1
   240 1   -5575.548796    1131.510400       0.000000     327.052     327.052  910.000 1
   241 1    7610.618047    2297.409000       0.000000     326.704     326.704  910.000 1
   242 1   -6414.951485    1880.893600       0.000000     326.418     326.418  910.000 1
   243 1   -6106.116743   -1988.245800       0.000000     326.014     326.014  910.000 1
   244 1    1050.167402    2259.158000       0.000000     323.478     323.478  910.000 1
   245 1   -2293.101496   -1390.213600       0.000000     323.212     323.212  910.000 1
   246 1   -3332.219607     249.284000       0.000000     322.794     322.794  910.000 1
   247 1    4450.197738    1781.887600       0.000000     322.324     322.324  910.000 1
   248 1    6909.684987     658.566800       0.000000     321.130     321.130  910.000 1
   249 1    2936.545925     754.324800       0.000000     319.902     319.902  910.000 1
   250 1     506.449386   -1115.833000       0.000000     318.826     318.826  910.000 1
   251 1   -8141.101154     195.193200       0.000000     317.962     317.962  910.000 1
   252 1    5405.203883    2341.303400       0.000000     317.692     317.692  910.000 1
   253 1   -3218.514933   -1533.090800       0.000000     317.664     317.664  910.000 1
   254 1    1057.277732   -2283.854400       0.000000     316.194     316.194  910.000 1
   255 1   -3658.163580   -2348.779600       0.000000     316.122     316.122  910.000 1
   256 1   -7454.352394   -1791.968000       0.000000     315.638     315.638  910.000 1
   257 1    3241.098310   -1043.443200       0.000000     315.408     315.408  910.000 1
   258 1   -6211.882896    1566.429200       0.000000     314.340     314.340  910.000 1
   259 1   -4621.633441    -264.665600       0.000000     311.416     311.416  910.000 1
   260 1    2924.062449   -2356.346860       0.000000     310.754     310.754  910.000 1
   261 1    5492.083222     138.306800       0.000000     310.592     310.592  910.000 1
   262 1    5270.693414   -2345.731700       0.000000     308.130     308.130  910.000 1
   263 1    6363.563194    1405.032600       0.000000     308.120     308.120  910.000 1
   264 1    7390.036231   -1676.855400       0.000000     307.596     307.596  910.000 1
   265 1    5824.026536    -995.320600       0.000000     306.988     306.988  910.000 1
   266 1   -5364.218488    1693.542000       0.000000     306.742     306.742  910.000 1
   267 1     894.123947   -1606.408600       0.000000     306.562     306.562  910.000 1
   268 1     710.103769   -1353.656200       0.000000     306.192     306.192  910.000 1
   269 1    5787.565897     795.377200       0.000000     304.846     304.846  910.000 1
   270 1   -6964.184047    -109.875200       0.000000     304.588     304.588  910.000 1
   271 1   -5229.708020    1967.911000       0.000000     304.484     304.484  910.000 1
   272 1    2224.906971     577.355200       0.000000     303.676     303.676  910.000 1
   273 1    5480.427938     811.391000       0.000000     301.206     301.206  910.000 1
   274 1   -4486.476579    -538.071800       0.000000     298.612     298.612  910.000 1
   275 1    3851.475666   -1191.586800       0.000000     298.372     298.372  910.000 1
   276 1    -768.077195     546.684800       0.000000     296.954     296.954  910.000 1
   277 1    -854.411140   -2322.206320       0.000000     296.746     296.746  910.000 1
   278 1   -1466.141884   -2092.605200       0.000000     296.086     296.086  910.000 1
   279 1   -5077.886323    1599.918400       0.000000     295.828     295.828  910.000 1
   280 1    -979.064106   -1236.432400       0.000000     295.474     295.474  910.000 1
   281 1    7905.797724     712.773600       0.000000     295.358     295.358  910.000 1
   282 1   -8101.723664    1139.091000       0.000000     295.274     295.274  910.000 1
   283 1    2566.303791    -406.469800       0.000000     295.098     295.098  910.000 1
   284 1   -5044.071858    -205.412800       0.000000     294.154     294.154  910.000 1
   285 1    5374.621385    -776.915800       0.000000     293.912     293.912  910.000 1
   286 1   -1390.756230    -304.801600       0.000000     293.912     293.912  910.000 1
   287 1     892.447364    1322.556600       0.000000     293.902     293.902  910.000 1
   288 1   -5730.360063   -1865.657000       0.000000     291.816     291.816  910.000 1
   289 1   -6270.644114     952.818200       0.000000     290.948     290.948  910.000 1
   290 1    1425.398887   -2012.344800       0.000000     290.624     290.624  910.000 1
   291 1   -8164.908639    -730.927600       0.000000     290.262     290.262  910.000 1
   292 1    5033.224566    1640.808400       0.000000     290.238     290.238  910.000 1
   293 1   -1833.818643    2239.635200       0.000000     289.012     289.012  910.000 1
   294 1   -3811.419463   -1836.338000       0.000000     288.546     288.546  910.000 1
   295 1    7654.552612     564.299400       0.000000     288.300     288.300  910.000 1
   296 1    -649.585168    2269.337000       0.000000     288.084     288.084  910.000 1
   297 1    8222.005393    -771.318800       0.000000     287.488     287.488  910.000 1
   298 1   -1700.116167   -1918.593600       0.000000     287.476     287.476  910.000 1
   299 1   -7718.545578     -61.851200       0.000000     284.896     284.896  910.000 1
   300 1   -1052.550979   -1517.053800       0.000000     284.690     284.690  910.000 1
   301 1   -4146.412946    -911.696200       0.000000     284.156     284.156  910.000 1
   302 1   -4655.710503   -2212.096800       0.000000     284.144     284.144  910.000 1
   303 1    1347.892254   -1540.630800       0.000000     283.534     283.534  910.000 1
   304 1    7546.463482    -688.964600       0.000000     281.786     281.786  910.000 1
   305 1   -7882.992150    -778.122200       0.000000     281.584     281.584  910.000 1
   306 1   -3417.543563     -58.145000       0.000000     280.056     280.056  910.000 1
   307 1    2785.431221    2275.920000       0.000000     279.438     279.438  910.000 1
   308 1    2182.487391    2361.180000       0.000000     279.120     279.120  910.000 1
   309 1   -5533.593811    1931.951000       0.000000     278.508     278.508  910.000 1
   310 1   -1439.882144    -586.646800       0.000000     278.304     278.304  910.000 1
   311 1   -5016.963727    2286.423800       0.000000     277.834     277.834  910.000 1
   312 1    7203.975873   -1012.355200       0.000000     277.346     277.346  910.000 1
   313 1     872.873758   -2052.283600       0.000000     275.870     275.870  910.000 1
   314 1   -7154.486363    -344.119800       0.000000     275.868     275.868  910.000 1
   315 1    2914.265546     458.008600       0.000000     274.414     274.414  910.000 1
   316 1   -5580.901743     178.135400       0.000000     274.278     274.278  910.000 1
   317 1   -7245.042066    2367.641200       0.000000     274.112     274.112  910.000 1
   318 1   -2959.816095   -1206.249200       0.000000     273.336     273.336  910.000 1
   319 1    1717.104199    2302.391200       0.000000     272.664     272.664  910.000 1
   320 1   -5114.831758      68.875000       0.000000     272.528     272.528  910.000 1
   321 1   -5180.501307     332.612600       0.000000     271.182     271.182  910.000 1
   322 1   -6183.239579    2114.419000       0.000000     270.498     270.498  910.000 1
   323 1    8836.503509     346.961800       0.000000     269.714     269.714  910.000 1
   324 1   -8185.379116     -95.253400       0.000000     269.666     269.666  910.000 1
   325 1    8932.129362      61.259600       0.000000     268.162     268.162  910.000 1
   326 1    4020.467193     588.468000       0.000000     266.596     266.596  910.000 1
   327 1    6902.110062   -1299.936600       0.000000     265.978     265.978  910.000 1
   328 1    3365.327080    -495.876800       0.000000     265.804     265.804  910.000 1
   329 1   -8169.150597    1409.713200       0.000000     262.594     262.594  910.000 1
   330 1   -6106.783336    1834.511000       0.000000     261.688     261.688  910.000 1
   331 1    3213.666981   -2292.090400       0.000000     259.736     259.736  910.000 1
   332 1    -471.806729    2017.443000       0.000000     258.950     258.950  910.000 1
   333 1    8021.683977    2210.153800       0.000000     258.946     258.946  910.000 1