ITEM: TIMESTEP
0
ITEM: NUMBER OF ATOMS
50
ITEM: BOX BOUNDS pp pp pp
-10099.9 10099.9
-2700 2700
-100 100
ITEM: ATOMS id radius xs ys vx vy 
1262 99.946 0.0148491 0.0555741 0 0 
1263 99.946 0.0148491 0.0926102 0 0 
1287 99.946 0.00494805 0.0555741 0 0 
1288 99.946 0.00494805 0.0926102 0 0 
1264 99.946 0.0148491 0.129645 0 0 
1265 99.946 0.0148491 0.166681 0 0 
1289 99.946 0.00494805 0.129645 0 0 
1290 99.946 0.00494805 0.166681 0 0 
1266 99.946 0.0148491 0.203716 0 0 
1267 99.946 0.0148491 0.240752 0 0 
1268 99.946 0.0148491 0.277787 0 0 
1291 99.946 0.00494805 0.203716 0 0 
1292 99.946 0.00494805 0.240752 0 0 
1293 99.946 0.00494805 0.277787 0 0 
1269 99.946 0.0148491 0.314822 0 0 
1270 99.946 0.0148491 0.351858 0 0 
1271 99.946 0.0148491 0.388894 0 0 
1294 99.946 0.00494805 0.314822 0 0 
1295 99.946 0.00494805 0.351858 0 0 
1296 99.946 0.00494805 0.388894 0 0 
1272 99.946 0.0148491 0.425929 0 0 
1273 99.946 0.0148491 0.462965 0 0 
1297 99.946 0.00494805 0.425929 0 0 
1298 99.946 0.00494805 0.462965 0 0 
1274 99.946 0.0148491 0.5 0 0 
1275 99.946 0.0148491 0.537035 0 0 
1276 99.946 0.0148491 0.574072 0 0 
1299 99.946 0.00494805 0.5 0 0 
1300 99.946 0.00494805 0.537035 0 0 
1301 99.946 0.00494805 0.574072 0 0 
1277 99.946 0.0148491 0.611107 0 0 
1278 99.946 0.0148491 0.648142 0 0 
1279 99.946 0.0148491 0.685178 0 0 
1302 99.946 0.00494805 0.611107 0 0 
1303 99.946 0.00494805 0.648142 0 0 
1304 99.946 0.00494805 0.685178 0 0 
1280 99.946 0.0148491 0.722213 0 0 
1281 99.946 0.0148491 0.759249 0 0 
1282 99.946 0.0148491 0.796285 0 0 
1305 99.946 0.00494805 0.722213 0 0 
1306 99.946 0.00494805 0.759249 0 0 
1307 99.946 0.00494805 0.796285 0 0 
1283 99.946 0.0148491 0.83332 0 0 
1284 99.946 0.0148491 0.870355 0 0 
1308 99.946 0.00494805 0.83332 0 0 
1309 99.946 0.00494805 0.870355 0 0 
1285 99.946 0.0148491 0.90739 0 0 
1286 99.946 0.0148491 0.944426 0 0 
1310 99.946 0.00494805 0.90739 0 0 
1311 99.946 0.00494805 0.944426 0 0 
