ITEM: TIMESTEP
0
ITEM: NUMBER OF ATOMS
252
ITEM: BOX BOUNDS pp pp pp
-10099.9 10099.9
-2700 2700
-100 100
ITEM: ATOMS id radius xs ys vx vy omegaz fx fy tqz c_2b[1] c_2b[2] c_2b[4] 
1161 99.95 0.00494805 0.0185093 0 0 0 0 0 0 -0 -1.04089 -0 
1162 99.95 0.0148491 0.0185093 0 0 0 0 0 0 -0 -1.04089 -0 
1163 99.95 0.0247501 0.0185093 0 0 0 0 0 0 -0 -1.04089 -0 
1262 99.946 0.0148491 0.0555741 0 0 0 0 0 0 -0 -0 -0 
1263 99.946 0.0148491 0.0926102 0 0 0 0 0 0 -0 -0 -0 
1287 99.946 0.00494805 0.0555741 0 0 0 0 0 0 -0 -0 -0 
1288 99.946 0.00494805 0.0926102 0 0 0 0 0 0 -0 -0 -0 
1164 99.95 0.0346512 0.0185093 0 0 0 0 0 0 -0 -1.04089 -0 
1165 99.95 0.0445522 0.0185093 0 0 0 0 0 0 -0 -1.04089 -0 
1166 99.95 0.0544532 0.0185093 0 0 0 0 0 0 -0 -1.04089 -0 
1167 99.95 0.0643543 0.0185093 0 0 0 0 0 0 -0 -1.04089 -0 
1168 99.95 0.0742553 0.0185093 0 0 0 0 0 0 -0 -1.04089 -0 
1169 99.95 0.0841564 0.0185093 0 0 0 0 0 0 -0 -1.04089 -0 
1170 99.95 0.0940573 0.0185093 0 0 0 0 0 0 -0 -1.04089 -0 
1171 99.95 0.103959 0.0185093 0 0 0 0 0 0 -0 -1.04089 -0 
1172 99.95 0.113859 0.0185093 0 0 0 0 0 0 -0 -1.04089 -0 
1173 99.95 0.123761 0.0185093 0 0 0 0 0 0 -0 -1.04089 -0 
1174 99.95 0.133661 0.0185093 0 0 0 0 0 0 -0 -1.04089 -0 
1175 99.95 0.143563 0.0185093 0 0 0 0 0 0 -0 -1.04089 -0 
1176 99.95 0.153464 0.0185093 0 0 0 0 0 0 -0 -1.04089 -0 
1177 99.95 0.163365 0.0185093 0 0 0 0 0 0 -0 -1.04089 -0 
1178 99.95 0.173266 0.0185093 0 0 0 0 0 0 -0 -1.04089 -0 
1179 99.95 0.183166 0.0185093 0 0 0 0 0 0 -0 -1.04089 -0 
1180 99.95 0.193068 0.0185093 0 0 0 0 0 0 -0 -1.04089 -0 
1181 99.95 0.202968 0.0185093 0 0 0 0 0 0 -1.76243e+08 -1.46341e+08 1.60597e+08 
1182 99.95 0.21287 0.0185093 0 0 0 0 0 0 -0 -1.04089 -0 
1183 99.95 0.22277 0.0185093 0 0 0 0 0 0 -0 -1.04089 -0 
1184 99.95 0.232672 0.0185093 0 0 0 0 0 0 -0 -1.04089 -0 
1185 99.95 0.242573 0.0185093 0 0 0 0 0 0 -0 -1.04089 -0 
1264 99.946 0.0148491 0.129645 0 0 0 0 0 0 -0 -0 -0 
1265 99.946 0.0148491 0.166681 0 0 0 0 0 0 -0 -0 -0 
1289 99.946 0.00494805 0.129645 0 0 0 0 0 0 -0 -0 -0 
1290 99.946 0.00494805 0.166681 0 0 0 0 0 0 -0 -0 -0 
1266 99.946 0.0148491 0.203716 0 0 0 0 0 0 -0 -0 -0 
1267 99.946 0.0148491 0.240752 0 0 0 0 0 0 -0 -0 -0 
1268 99.946 0.0148491 0.277787 0 0 0 0 0 0 -0 -0 -0 
1291 99.946 0.00494805 0.203716 0 0 0 0 0 0 -0 -0 -0 
1292 99.946 0.00494805 0.240752 0 0 0 0 0 0 -0 -0 -0 
1293 99.946 0.00494805 0.277787 0 0 0 0 0 0 -0 -0 -0 
1269 99.946 0.0148491 0.314822 0 0 0 0 0 0 -0 -0 -0 
1270 99.946 0.0148491 0.351858 0 0 0 0 0 0 -0 -0 -0 
1271 99.946 0.0148491 0.388894 0 0 0 0 0 0 -0 -0 -0 
1294 99.946 0.00494805 0.314822 0 0 0 0 0 0 -0 -0 -0 
1295 99.946 0.00494805 0.351858 0 0 0 0 0 0 -0 -0 -0 
1296 99.946 0.00494805 0.388894 0 0 0 0 0 0 -0 -0 -0 
1272 99.946 0.0148491 0.425929 0 0 0 0 0 0 -0 -0 -0 
1273 99.946 0.0148491 0.462965 0 0 0 0 0 0 -0 -0 -0 
1297 99.946 0.00494805 0.425929 0 0 0 0 0 0 -0 -0 -0 
1298 99.946 0.00494805 0.462965 0 0 0 0 0 0 -0 -0 -0 
1274 99.946 0.0148491 0.5 0 0 0 0 0 0 -0 -0 -0 
1275 99.946 0.0148491 0.537035 0 0 0 0 0 0 -0 -0 -0 
1276 99.946 0.0148491 0.574072 0 0 0 0 0 0 -0 -0 -0 
1299 99.946 0.00494805 0.5 0 0 0 0 0 0 -0 -0 -0 
1300 99.946 0.00494805 0.537035 0 0 0 0 0 0 -0 -0 -0 
1301 99.946 0.00494805 0.574072 0 0 0 0 0 0 -0 -0 -0 
1277 99.946 0.0148491 0.611107 0 0 0 0 0 0 -0 -0 -0 
1278 99.946 0.0148491 0.648142 0 0 0 0 0 0 -0 -0 -0 
1279 99.946 0.0148491 0.685178 0 0 0 0 0 0 -0 -0 -0 
1302 99.946 0.00494805 0.611107 0 0 0 0 0 0 -0 -0 -0 
1303 99.946 0.00494805 0.648142 0 0 0 0 0 0 -0 -0 -0 
1304 99.946 0.00494805 0.685178 0 0 0 0 0 0 -0 -0 -0 
1280 99.946 0.0148491 0.722213 0 0 0 0 0 0 -0 -0 -0 
1281 99.946 0.0148491 0.759249 0 0 0 0 0 0 -0 -0 -0 
1282 99.946 0.0148491 0.796285 0 0 0 0 0 0 -0 -0 -0 
1305 99.946 0.00494805 0.722213 0 0 0 0 0 0 -0 -0 -0 
1306 99.946 0.00494805 0.759249 0 0 0 0 0 0 -0 -0 -0 
1307 99.946 0.00494805 0.796285 0 0 0 0 0 0 -0 -0 -0 
1283 99.946 0.0148491 0.83332 0 0 0 0 0 0 -0 -0 -0 
1284 99.946 0.0148491 0.870355 0 0 0 -4.77424e+07 2.42275e+07 0 -3.24644e+09 -8.36019e+08 1.64745e+09 
1308 99.946 0.00494805 0.83332 0 0 0 0 0 0 -0 -0 -0 
1309 99.946 0.00494805 0.870355 0 0 0 0 0 0 -0 -0 -0 
1060 99.95 0.00494805 0.981491 0 0 0 0 0 0 -0 -1.04089 -0 
1061 99.95 0.0148491 0.981491 0 0 0 0 0 0 -0 -1.04089 -0 
1062 99.95 0.0247501 0.981491 0 0 0 0 0 0 -0 -1.04089 -0 
1285 99.946 0.0148491 0.90739 0 0 0 0 0 0 -0 -0 -0 
1286 99.946 0.0148491 0.944426 0 0 0 0 0 0 -0 -0 -0 
1310 99.946 0.00494805 0.90739 0 0 0 0 0 0 -0 -0 -0 
1311 99.946 0.00494805 0.944426 0 0 0 0 0 0 -0 -0 -0 
1063 99.95 0.0346512 0.981491 0 0 0 0 0 0 -0 -1.04089 -0 
1064 99.95 0.0445522 0.981491 0 0 0 0 0 0 -1.86704e+09 -1.83137e+09 1.84912e+09 
1065 99.95 0.0544532 0.981491 0 0 0 0 0 0 -0 -1.04089 -0 
1066 99.95 0.0643543 0.981491 0 0 0 0 0 0 -0 -1.04089 -0 
1067 99.95 0.0742553 0.981491 0 0 0 0 0 0 -0 -1.04089 -0 
1068 99.95 0.0841564 0.981491 0 0 0 0 0 0 -0 -1.04089 -0 
1069 99.95 0.0940573 0.981491 0 0 0 0 0 0 -0 -1.04089 -0 
1070 99.95 0.103959 0.981491 0 0 0 0 0 0 -0 -1.04089 -0 
1071 99.95 0.113859 0.981491 0 0 0 0 0 0 -0 -1.04089 -0 
1072 99.95 0.123761 0.981491 0 0 0 0 0 0 -0 -1.04089 -0 
1073 99.95 0.133661 0.981491 0 0 0 0 0 0 -0 -1.04089 -0 
1074 99.95 0.143563 0.981491 0 0 0 0 0 0 -0 -1.04089 -0 
1075 99.95 0.153464 0.981491 0 0 0 0 0 0 -0 -1.04089 -0 
1076 99.95 0.163365 0.981491 0 0 0 0 0 0 -0 -1.04089 -0 
1077 99.95 0.173266 0.981491 0 0 0 0 0 0 -0 -1.04089 -0 
1078 99.95 0.183166 0.981491 0 0 0 0 0 0 -0 -1.04089 -0 
1079 99.95 0.193068 0.981491 0 0 0 0 0 0 -0 -1.04089 -0 
1080 99.95 0.202968 0.981491 0 0 0 0 0 0 -0 -1.04089 -0 
1081 99.95 0.21287 0.981491 0 0 0 0 0 0 -0 -1.04089 -0 
1082 99.95 0.22277 0.981491 0 0 0 0 0 0 -0 -1.04089 -0 
1083 99.95 0.232672 0.981491 0 0 0 0 0 0 -0 -1.04089 -0 
1084 99.95 0.242573 0.981491 0 0 0 0 0 0 -0 -1.04089 -0 
1186 99.95 0.252474 0.0185093 0 0 0 0 0 0 -0 -1.04089 -0 
1187 99.95 0.262375 0.0185093 0 0 0 0 0 0 -0 -1.04089 -0 
1188 99.95 0.272276 0.0185093 0 0 0 0 0 0 -0 -1.04089 -0 
1189 99.95 0.282177 0.0185093 0 0 0 0 0 0 -0 -1.04089 -0 
1190 99.95 0.292078 0.0185093 0 0 0 0 0 0 -0 -1.04089 -0 
1191 99.95 0.301979 0.0185093 0 0 0 0 0 0 -0 -1.04089 -0 
1192 99.95 0.31188 0.0185093 0 0 0 0 0 0 -0 -1.04089 -0 
1193 99.95 0.321781 0.0185093 0 0 0 0 0 0 -0 -1.04089 -0 
1194 99.95 0.331683 0.0185093 0 0 0 0 0 0 -0 -1.04089 -0 
1195 99.95 0.341583 0.0185093 0 0 0 0 0 0 -0 -1.04089 -0 
1196 99.95 0.351485 0.0185093 0 0 0 0 0 0 -0 -1.04089 -0 
1197 99.95 0.361385 0.0185093 0 0 0 0 0 0 -0 -1.04089 -0 
1198 99.95 0.371287 0.0185093 0 0 0 0 0 0 -0 -1.04089 -0 
1199 99.95 0.381187 0.0185093 0 0 0 0 0 0 -0 -1.04089 -0 
1200 99.95 0.391089 0.0185093 0 0 0 0 0 0 -0 -1.04089 -0 
1201 99.95 0.400989 0.0185093 0 0 0 0 0 0 -0 -1.04089 -0 
1202 99.95 0.410891 0.0185093 0 0 0 0 0 0 -0 -1.04089 -0 
1203 99.95 0.420792 0.0185093 0 0 0 0 0 0 -0 -1.04089 -0 
1204 99.95 0.430693 0.0185093 0 0 0 0 0 0 -0 -1.04089 -0 
1205 99.95 0.440594 0.0185093 0 0 0 0 0 0 -0 -1.04089 -0 
1206 99.95 0.450494 0.0185093 0 0 0 0 0 0 -0 -1.04089 -0 
1207 99.95 0.460396 0.0185093 0 0 0 0 0 0 -0 -1.04089 -0 
1208 99.95 0.470296 0.0185093 0 0 0 0 0 0 -0 -1.04089 -0 
1209 99.95 0.480198 0.0185093 0 0 0 0 0 0 -0 -1.04089 -0 
1210 99.95 0.490098 0.0185093 0 0 0 0 0 0 -0 -1.04089 -0 
1211 99.95 0.5 0.0185093 0 0 0 0 0 0 -0 -1.04089 -0 
1085 99.95 0.252474 0.981491 0 0 0 0 0 0 -0 -1.04089 -0 
1086 99.95 0.262375 0.981491 0 0 0 0 0 0 -0 -1.04089 -0 
1087 99.95 0.272276 0.981491 0 0 0 0 0 0 -0 -1.04089 -0 
1088 99.95 0.282177 0.981491 0 0 0 0 0 0 -0 -1.04089 -0 
1089 99.95 0.292078 0.981491 0 0 0 0 0 0 -0 -1.04089 -0 
1090 99.95 0.301979 0.981491 0 0 0 0 0 0 -0 -1.04089 -0 
1091 99.95 0.31188 0.981491 0 0 0 0 0 0 -0 -1.04089 -0 
1092 99.95 0.321781 0.981491 0 0 0 0 0 0 -0 -1.04089 -0 
1093 99.95 0.331683 0.981491 0 0 0 0 0 0 -0 -1.04089 -0 
1094 99.95 0.341583 0.981491 0 0 0 0 0 0 -0 -1.04089 -0 
1095 99.95 0.351485 0.981491 0 0 0 0 0 0 -0 -1.04089 -0 
1096 99.95 0.361385 0.981491 0 0 0 0 0 0 -0 -1.04089 -0 
1097 99.95 0.371287 0.981491 0 0 0 0 0 0 -0 -1.04089 -0 
1098 99.95 0.381187 0.981491 0 0 0 0 0 0 -0 -1.04089 -0 
1099 99.95 0.391089 0.981491 0 0 0 0 0 0 -0 -1.04089 -0 
1100 99.95 0.400989 0.981491 0 0 0 0 0 0 -0 -1.04089 -0 
1101 99.95 0.410891 0.981491 0 0 0 0 0 0 -0 -1.04089 -0 
1102 99.95 0.420792 0.981491 0 0 0 0 0 0 -0 -1.04089 -0 
1103 99.95 0.430693 0.981491 0 0 0 0 0 0 -0 -1.04089 -0 
1104 99.95 0.440594 0.981491 0 0 0 0 0 0 -0 -1.04089 -0 
1105 99.95 0.450494 0.981491 0 0 0 0 0 0 -0 -1.04089 -0 
1106 99.95 0.460396 0.981491 0 0 0 0 0 0 -0 -1.04089 -0 
1107 99.95 0.470296 0.981491 0 0 0 0 0 0 -0 -1.04089 -0 
1108 99.95 0.480198 0.981491 0 0 0 0 0 0 -0 -1.04089 -0 
1109 99.95 0.490098 0.981491 0 0 0 0 0 0 -0 -1.04089 -0 
1110 99.95 0.5 0.981491 0 0 0 0 0 0 -0 -1.04089 -0 
1212 99.95 0.509901 0.0185093 0 0 0 0 0 0 -0 -1.04089 -0 
1213 99.95 0.519802 0.0185093 0 0 0 0 0 0 -0 -1.04089 -0 
1214 99.95 0.529703 0.0185093 0 0 0 0 0 0 -0 -1.04089 -0 
1215 99.95 0.539604 0.0185093 0 0 0 0 0 0 -0 -1.04089 -0 
1216 99.95 0.549505 0.0185093 0 0 0 0 0 0 -0 -1.04089 -0 
1217 99.95 0.559406 0.0185093 0 0 0 0 0 0 -0 -1.04089 -0 
1218 99.95 0.569307 0.0185093 0 0 0 0 0 0 -0 -1.04089 -0 
1219 99.95 0.579208 0.0185093 0 0 0 0 0 0 -0 -1.04089 -0 
1220 99.95 0.589109 0.0185093 0 0 0 0 0 0 -0 -1.04089 -0 
1221 99.95 0.59901 0.0185093 0 0 0 0 0 0 -0 -1.04089 -0 
1222 99.95 0.608911 0.0185093 0 0 0 0 0 0 -0 -1.04089 -0 
1223 99.95 0.618813 0.0185093 0 0 0 0 0 0 -0 -1.04089 -0 
1224 99.95 0.628713 0.0185093 0 0 0 0 0 0 -0 -1.04089 -0 
1225 99.95 0.638615 0.0185093 0 0 0 0 0 0 -0 -1.04089 -0 
1226 99.95 0.648515 0.0185093 0 0 0 0 0 0 -0 -1.04089 -0 
1227 99.95 0.658417 0.0185093 0 0 0 0 0 0 -0 -1.04089 -0 
1228 99.95 0.668317 0.0185093 0 0 0 0 0 0 -0 -1.04089 -0 
1229 99.95 0.678219 0.0185093 0 0 0 0 0 0 -0 -1.04089 -0 
1230 99.95 0.688119 0.0185093 0 0 0 0 0 0 -0 -1.04089 -0 
1231 99.95 0.69802 0.0185093 0 0 0 0 0 0 -0 -1.04089 -0 
1232 99.95 0.707922 0.0185093 0 0 0 0 0 0 -0 -1.04089 -0 
1233 99.95 0.717822 0.0185093 0 0 0 0 0 0 -0 -1.04089 -0 
1234 99.95 0.727724 0.0185093 0 0 0 0 0 0 -0 -1.04089 -0 
1235 99.95 0.737624 0.0185093 0 0 0 0 0 0 -0 -1.04089 -0 
1236 99.95 0.747526 0.0185093 0 0 0 0 0 0 -0 -1.04089 -0 
1111 99.95 0.509901 0.981491 0 0 0 0 0 0 -0 -1.04089 -0 
1112 99.95 0.519802 0.981491 0 0 0 0 0 0 -0 -1.04089 -0 
1113 99.95 0.529703 0.981491 0 0 0 0 0 0 -0 -1.04089 -0 
1114 99.95 0.539604 0.981491 0 0 0 0 0 0 -0 -1.04089 -0 
1115 99.95 0.549505 0.981491 0 0 0 0 0 0 -0 -1.04089 -0 
1116 99.95 0.559406 0.981491 0 0 0 0 0 0 -0 -1.04089 -0 
1117 99.95 0.569307 0.981491 0 0 0 0 0 0 -0 -1.04089 -0 
1118 99.95 0.579208 0.981491 0 0 0 0 0 0 -0 -1.04089 -0 
1119 99.95 0.589109 0.981491 0 0 0 0 0 0 -0 -1.04089 -0 
1120 99.95 0.59901 0.981491 0 0 0 0 0 0 -0 -1.04089 -0 
1121 99.95 0.608911 0.981491 0 0 0 0 0 0 -0 -1.04089 -0 
1122 99.95 0.618813 0.981491 0 0 0 0 0 0 -0 -1.04089 -0 
1123 99.95 0.628713 0.981491 0 0 0 0 0 0 -0 -1.04089 -0 
1124 99.95 0.638615 0.981491 0 0 0 0 0 0 -0 -1.04089 -0 
1125 99.95 0.648515 0.981491 0 0 0 0 0 0 -0 -1.04089 -0 
1126 99.95 0.658417 0.981491 0 0 0 0 0 0 -0 -1.04089 -0 
1127 99.95 0.668317 0.981491 0 0 0 0 0 0 -0 -1.04089 -0 
1128 99.95 0.678219 0.981491 0 0 0 0 0 0 -0 -1.04089 -0 
1129 99.95 0.688119 0.981491 0 0 0 0 0 0 -0 -1.04089 -0 
1130 99.95 0.69802 0.981491 0 0 0 0 0 0 -0 -1.04089 -0 
1131 99.95 0.707922 0.981491 0 0 0 0 0 0 -0 -1.04089 -0 
1132 99.95 0.717822 0.981491 0 0 0 0 0 0 -0 -1.04089 -0 
1133 99.95 0.727724 0.981491 0 0 0 0 0 0 -0 -1.04089 -0 
1134 99.95 0.737624 0.981491 0 0 0 0 0 0 -0 -1.04089 -0 
1135 99.95 0.747526 0.981491 0 0 0 0 0 0 -0 -1.04089 -0 
1237 99.95 0.757426 0.0185093 0 0 0 0 0 0 -0 -1.04089 -0 
1238 99.95 0.767328 0.0185093 0 0 0 0 0 0 -0 -1.04089 -0 
1239 99.95 0.777228 0.0185093 0 0 0 0 0 0 -0 -1.04089 -0 
1240 99.95 0.78713 0.0185093 0 0 0 0 0 0 -0 -1.04089 -0 
1241 99.95 0.797031 0.0185093 0 0 0 0 0 0 -0 -1.04089 -0 
1242 99.95 0.806932 0.0185093 0 0 0 0 0 0 -0 -1.04089 -0 
1243 99.95 0.816833 0.0185093 0 0 0 0 0 0 -0 -1.04089 -0 
1244 99.95 0.826734 0.0185093 0 0 0 0 0 0 -0 -1.04089 -0 
1245 99.95 0.836635 0.0185093 0 0 0 0 0 0 -0 -1.04089 -0 
1246 99.95 0.846536 0.0185093 0 0 0 0 0 0 -0 -1.04089 -0 
1247 99.95 0.856437 0.0185093 0 0 0 0 0 0 -0 -1.04089 -0 
1248 99.95 0.866338 0.0185093 0 0 0 0 0 0 -0 -1.04089 -0 
1249 99.95 0.876239 0.0185093 0 0 0 0 0 0 -0 -1.04089 -0 
1250 99.95 0.886141 0.0185093 0 0 0 0 0 0 -0 -1.04089 -0 
1251 99.95 0.896041 0.0185093 0 0 0 0 0 0 -0 -1.04089 -0 
1252 99.95 0.905943 0.0185093 0 0 0 0 0 0 -0 -1.04089 -0 
1253 99.95 0.915843 0.0185093 0 0 0 0 0 0 -0 -1.04089 -0 
1254 99.95 0.925745 0.0185093 0 0 0 0 0 0 -0 -1.04089 -0 
1255 99.95 0.935645 0.0185093 0 0 0 0 0 0 -0 -1.04089 -0 
1256 99.95 0.945547 0.0185093 0 0 0 0 0 0 -0 -1.04089 -0 
1257 99.95 0.955447 0.0185093 0 0 0 0 0 0 -0 -1.04089 -0 
1258 99.95 0.965348 0.0185093 0 0 0 0 0 0 -0 -1.04089 -0 
1259 99.95 0.97525 0.0185093 0 0 0 0 0 0 -0 -1.04089 -0 
1260 99.95 0.98515 0.0185093 0 0 0 0 0 0 -0 -1.04089 -0 
1261 99.95 0.995052 0.0185093 0 0 0 0 0 0 -0 -1.04089 -0 
1136 99.95 0.757426 0.981491 0 0 0 0 0 0 -0 -1.04089 -0 
1137 99.95 0.767328 0.981491 0 0 0 0 0 0 -0 -1.04089 -0 
1138 99.95 0.777228 0.981491 0 0 0 0 0 0 -0 -1.04089 -0 
1139 99.95 0.78713 0.981491 0 0 0 0 0 0 -0 -1.04089 -0 
1140 99.95 0.797031 0.981491 0 0 0 0 0 0 -0 -1.04089 -0 
1141 99.95 0.806932 0.981491 0 0 0 0 0 0 -0 -1.04089 -0 
1142 99.95 0.816833 0.981491 0 0 0 0 0 0 -0 -1.04089 -0 
1143 99.95 0.826734 0.981491 0 0 0 0 0 0 -0 -1.04089 -0 
1144 99.95 0.836635 0.981491 0 0 0 0 0 0 -0 -1.04089 -0 
1145 99.95 0.846536 0.981491 0 0 0 0 0 0 -0 -1.04089 -0 
1146 99.95 0.856437 0.981491 0 0 0 0 0 0 -0 -1.04089 -0 
1147 99.95 0.866338 0.981491 0 0 0 0 0 0 -0 -1.04089 -0 
1148 99.95 0.876239 0.981491 0 0 0 0 0 0 -0 -1.04089 -0 
1149 99.95 0.886141 0.981491 0 0 0 0 0 0 -2.95278e+12 -1.9884e+12 2.42308e+12 
1150 99.95 0.896041 0.981491 0 0 0 0 0 0 -6.8269e+12 -5.31582e+12 -6.02416e+12 
1151 99.95 0.905943 0.981491 0 0 0 0 0 0 -0 -1.04089 -0 
1152 99.95 0.915843 0.981491 0 0 0 0 0 0 -0 -1.04089 -0 
1153 99.95 0.925745 0.981491 0 0 0 0 0 0 -0 -1.04089 -0 
1154 99.95 0.935645 0.981491 0 0 0 0 0 0 -0 -1.04089 -0 
1155 99.95 0.945547 0.981491 0 0 0 0 0 0 -0 -1.04089 -0 
1156 99.95 0.955447 0.981491 0 0 0 0 0 0 -0 -1.04089 -0 
1157 99.95 0.965348 0.981491 0 0 0 0 0 0 -0 -1.04089 -0 
1158 99.95 0.97525 0.981491 0 0 0 0 0 0 -0 -1.04089 -0 
1159 99.95 0.98515 0.981491 0 0 0 0 0 0 -0 -1.04089 -0 
1160 99.95 0.995052 0.981491 0 0 0 0 0 0 -0 -1.04089 -0 
