ITEM: TIMESTEP
0
ITEM: NUMBER OF ATOMS
1111
ITEM: BOX BOUNDS pp pp pp
-10099.9 10099.9
-2700 2700
-100 100
ITEM: ATOMS id radius xs ys vx vy omegaz fx fy tqz c_2b[1] c_2b[2] c_2b[4] 
903 47.4 0.0203242 0.0736045 0 0 0 0 0 0 -0 -0 -0 
705 68.665 0.0440209 0.0497102 0 0 0 0 0 0 -0 -0 -0 
942 43.1075 0.0494741 0.0375867 0 0 0 0 0 0 -0 -0 -0 
67 275.839 0.0671076 0.0938434 0 0 0 0 0 0 -0 -0 -0 
550 89.058 0.0512348 0.0612237 0 0 0 0 0 0 -0 -0 -0 
176 189.226 0.103138 0.0724156 0 0 0 0 0 0 -0 -0 -0 
252 163.007 0.121086 0.079091 0 0 0 0 0 0 -0 -0 -0 
783 60.279 0.113695 0.0482035 0 0 0 0 0 0 -0 -0 -0 
910 46.3445 0.119539 0.0405482 0 0 0 0 0 0 -0 -0 -0 
983 38.4085 0.124532 0.0439867 0 0 0 0 0 0 -0 -0 -0 
215 173.913 0.138655 0.0658741 0 0 0 0 0 0 -0 -0 -0 
825 55.7685 0.129175 0.0419921 0 0 0 0 0 0 -0 -0 -0 
125 219.609 0.158322 0.0750943 0 0 0 0 0 0 -0 -0 -0 
231 168.276 0.179326 0.0910873 0 0 0 0 0 0 -0 -0 -0 
391 117.959 0.198498 0.0637367 0 0 0 0 0 0 -0 -0 -0 
764 62.3175 0.190064 0.0762758 0 0 0 0 0 0 -0 -0 -0 
1024 35.014 0.19803 0.0353432 0 0 0 -3.53338e+06 3.21971e+06 0 -1.76243e+08 -1.46341e+08 1.60597e+08 
1051 31.099 0.193477 0.0880219 0 0 0 0 0 0 -0 -0 -0 
314 142.072 0.216366 0.0900561 0 0 0 0 0 0 -0 -0 -0 
466 104.05 0.204373 0.0987465 0 0 0 0 0 0 -0 -0 -0 
575 86.0185 0.218085 0.0482004 0 0 0 0 0 0 -0 -0 -0 
583 84.9735 0.20855 0.0596908 0 0 0 0 0 0 -0 -0 -0 
392 117.634 0.236504 0.0562274 0 0 0 0 0 0 -0 -0 -0 
499 97.879 0.234725 0.0956897 0 0 0 0 0 0 -0 -0 -0 
1015 35.5555 0.243942 0.043118 0 0 0 0 0 0 -0 -0 -0 
549 89.4145 0.0229669 0.184591 0 0 0 0 0 0 -0 -0 -0 
30 348.436 0.0370104 0.122593 0 0 0 0 0 0 -0 -0 -0 
352 128.37 0.0729439 0.165643 0 0 0 0 0 0 -0 -0 -0 
358 126.702 0.0584501 0.161197 0 0 0 0 0 0 -0 -0 -0 
716 67.1935 0.0663606 0.192385 0 0 0 0 0 0 -0 -0 -0 
242 164.221 0.0885708 0.108975 0 0 0 0 0 0 -0 -0 -0 
367 124.694 0.0848323 0.181628 0 0 0 0 0 0 -0 -0 -0 
658 74.495 0.0811818 0.143909 0 0 0 0 0 0 -0 -0 -0 
52 297.246 0.106499 0.162292 0 0 0 0 0 0 -0 -0 -0 
946 42.653 0.112585 0.100612 0 0 0 0 0 0 -0 -0 -0 
973 39.6725 0.121838 0.191322 0 0 0 0 0 0 -0 -0 -0 
1046 32.281 0.120449 0.11728 0 0 0 0 0 0 -0 -0 -0 
1057 30.285 0.122219 0.177819 0 0 0 0 0 0 -0 -0 -0 
94 246.707 0.132917 0.14096 0 0 0 0 0 0 -0 -0 -0 
747 63.6395 0.127278 0.197093 0 0 0 0 0 0 -0 -0 -0 
868 50.9055 0.148891 0.124549 0 0 0 0 0 0 -0 -0 -0 
299 145.908 0.152122 0.159175 0 0 0 0 0 0 -0 -0 -0 
413 112.844 0.164583 0.132201 0 0 0 0 0 0 -0 -0 -0 
480 101.192 0.164445 0.171935 0 0 0 0 0 0 -0 -0 -0 
1052 30.8415 0.15511 0.120281 0 0 0 0 0 0 -0 -0 -0 
135 213.037 0.18228 0.161171 0 0 0 0 0 0 -0 -0 -0 
246 163.811 0.201223 0.147381 0 0 0 0 0 0 -0 -0 -0 
500 97.5495 0.220107 0.132285 0 0 0 0 0 0 -0 -0 -0 
665 73.214 0.213733 0.159615 0 0 0 0 0 0 -0 -0 -0 
681 70.977 0.211788 0.128982 0 0 0 0 0 0 -0 -0 -0 
196 182.071 0.0308777 0.289298 0 0 0 0 0 0 -0 -0 -0 
265 157.819 0.0499071 0.203258 0 0 0 0 0 0 -0 -0 -0 
508 95.264 0.0281384 0.215614 0 0 0 0 0 0 -0 -0 -0 
760 62.445 0.0257764 0.24463 0 0 0 0 0 0 -0 -0 -0 
754 63.001 0.0623814 0.211467 0 0 0 0 0 0 -0 -0 -0 
20 388.192 0.101433 0.28813 0 0 0 0 0 0 -0 -0 -0 
407 114.746 0.119259 0.222256 0 0 0 0 0 0 -0 -0 -0 
382 120.096 0.139604 0.2043 0 0 0 0 0 0 -0 -0 -0 
386 119.168 0.126336 0.274163 0 0 0 0 0 0 -0 -0 -0 
396 116.875 0.135051 0.244865 0 0 0 0 0 0 -0 -0 -0 
794 59.5045 0.126368 0.240677 0 0 0 0 0 0 -0 -0 -0 
86 259.512 0.156862 0.232599 0 0 0 0 0 0 -0 -0 -0 
160 195.369 0.17492 0.283286 0 0 0 0 0 0 -0 -0 -0 
516 94.3165 0.16014 0.298304 0 0 0 0 0 0 -0 -0 -0 
651 75.049 0.172736 0.211531 0 0 0 0 0 0 -0 -0 -0 
351 128.641 0.182011 0.229288 0 0 0 0 0 0 -0 -0 -0 
477 101.676 0.189655 0.280668 0 0 0 0 0 0 -0 -0 -0 
842 53.525 0.196961 0.2903 0 0 0 0 0 0 -0 -0 -0 
69 275.594 0.202303 0.229021 0 0 0 0 0 0 -0 -0 -0 
16 400.988 0.235283 0.205388 0 0 0 0 0 0 -0 -0 -0 
523 92.8575 0.24452 0.293216 0 0 0 0 0 0 -0 -0 -0 
303 145.131 0.0269624 0.385314 0 0 0 0 0 0 -0 -0 -0 
317 140.792 0.0404031 0.368282 0 0 0 0 0 0 -0 -0 -0 
13 417.075 0.0616052 0.300609 0 0 0 0 0 0 -0 -0 -0 
714 67.544 0.0819131 0.348984 0 0 0 0 0 0 -0 -0 -0 
633 78.0415 0.118609 0.360962 0 0 0 0 0 0 -0 -0 -0 
823 56.1445 0.123324 0.380066 0 0 0 0 0 0 -0 -0 -0 
107 233.98 0.141818 0.304899 0 0 0 0 0 0 -0 -0 -0 
896 47.7835 0.134257 0.371673 0 0 0 0 0 0 -0 -0 -0 
531 91.566 0.169685 0.340048 0 0 0 0 0 0 -0 -0 -0 
592 83.5305 0.161274 0.331048 0 0 0 0 0 0 -0 -0 -0 
900 47.623 0.154809 0.324549 0 0 0 0 0 0 -0 -0 -0 
24 378.156 0.191631 0.369487 0 0 0 0 0 0 -0 -0 -0 
204 179.099 0.213206 0.304318 0 0 0 0 0 0 -0 -0 -0 
285 149.306 0.217797 0.372499 0 0 0 0 0 0 -0 -0 -0 
924 45.1675 0.219988 0.337335 0 0 0 0 0 0 -0 -0 -0 
1005 36.9215 0.222592 0.324655 0 0 0 0 0 0 -0 -0 -0 
313 142.078 0.229778 0.304126 0 0 0 0 0 0 -0 -0 -0 
436 108.835 0.246183 0.330248 0 0 0 0 0 0 -0 -0 -0 
441 107.724 0.23096 0.350293 0 0 0 0 0 0 -0 -0 -0 
1026 34.745 0.226932 0.372177 0 0 0 0 0 0 -0 -0 -0 
191 183.395 0.0295787 0.445621 0 0 0 0 0 0 -0 -0 -0 
465 104.329 0.0410841 0.477377 0 0 0 0 0 0 -0 -0 -0 
674 72.0695 0.0363193 0.405449 0 0 0 0 0 0 -0 -0 -0 
898 47.664 0.0352432 0.495236 0 0 0 0 0 0 -0 -0 -0 
75 268.792 0.0546568 0.425507 0 0 0 0 0 0 -0 -0 -0 
165 192.71 0.0681508 0.495306 0 0 0 0 0 0 -0 -0 -0 
142 209.059 0.0775045 0.400493 0 0 0 0 0 0 -0 -0 -0 
327 137.934 0.0820444 0.462635 0 0 0 0 0 0 -0 -0 -0 
28 357.96 0.104892 0.426056 0 0 0 0 0 0 -0 -0 -0 
879 49.894 0.115357 0.492376 0 0 0 0 0 0 -0 -0 -0 
233 166.95 0.129196 0.461151 0 0 0 0 0 0 -0 -0 -0 
393 117.576 0.128191 0.407738 0 0 0 0 0 0 -0 -0 -0 
671 72.569 0.142841 0.486521 0 0 0 0 0 0 -0 -0 -0 
23 379.774 0.15286 0.411098 0 0 0 0 0 0 -0 -0 -0 
627 79.518 0.164002 0.497546 0 0 0 0 0 0 -0 -0 -0 
668 72.9245 0.167944 0.473389 0 0 0 0 0 0 -0 -0 -0 
845 52.721 0.172392 0.489736 0 0 0 0 0 0 -0 -0 -0 
295 147.077 0.176874 0.449872 0 0 0 0 0 0 -0 -0 -0 
333 136.264 0.181386 0.499695 0 0 0 0 0 0 -0 -0 -0 
653 74.998 0.190586 0.453697 0 0 0 0 0 0 -0 -0 -0 
891 48.693 0.185515 0.466739 0 0 0 0 0 0 -0 -0 -0 
948 42.541 0.191365 0.475323 0 0 0 0 0 0 -0 -0 -0 
269 155.708 0.20941 0.442977 0 0 0 0 0 0 -0 -0 -0 
890 48.7015 0.216043 0.479951 0 0 0 0 0 0 -0 -0 -0 
4 453.065 0.239575 0.449425 0 0 0 0 0 0 -0 -0 -0 
1010 36.0945 0.0229202 0.592102 0 0 0 0 0 0 -0 -0 -0 
50 299.87 0.0487718 0.582445 0 0 0 0 0 0 -0 -0 -0 
260 158.981 0.0269519 0.55805 0 0 0 0 0 0 -0 -0 -0 
337 134.833 0.0264506 0.503533 0 0 0 0 0 0 -0 -0 -0 
599 82.9685 0.0412648 0.51714 0 0 0 0 0 0 -0 -0 -0 
911 46.263 0.0348693 0.515316 0 0 0 0 0 0 -0 -0 -0 
919 45.6345 0.0351432 0.534488 0 0 0 0 0 0 -0 -0 -0 
311 142.448 0.051586 0.500991 0 0 0 0 0 0 -0 -0 -0 
643 76.1785 0.0642621 0.543224 0 0 0 0 0 0 -0 -0 -0 
811 57.468 0.0662303 0.56734 0 0 0 0 0 0 -0 -0 -0 
133 214.055 0.0808477 0.561693 0 0 0 0 0 0 -0 -0 -0 
281 152.294 0.0909217 0.50507 0 0 0 0 0 0 -0 -0 -0 
570 86.7615 0.0959548 0.593216 0 0 0 0 0 0 -0 -0 -0 
836 54.318 0.0940639 0.567899 0 0 0 0 0 0 -0 -0 -0 
877 50.101 0.0797262 0.511655 0 0 0 0 0 0 -0 -0 -0 
92 253.738 0.10806 0.544726 0 0 0 0 0 0 -0 -0 -0 
453 105.722 0.12241 0.504958 0 0 0 0 0 0 -0 -0 -0 
501 97.178 0.121318 0.586977 0 0 0 0 0 0 -0 -0 -0 
722 66.298 0.123555 0.55779 0 0 0 0 0 0 -0 -0 -0 
915 45.98 0.123776 0.536567 0 0 0 0 0 0 -0 -0 -0 
383 120.07 0.133789 0.511595 0 0 0 0 0 0 -0 -0 -0 
558 88.385 0.130229 0.578266 0 0 0 0 0 0 -0 -0 -0 
606 81.6925 0.130272 0.54667 0 0 0 0 0 0 -0 -0 -0 
609 81.3955 0.143426 0.521569 0 0 0 0 0 0 -0 -0 -0 
645 75.9265 0.142589 0.550609 0 0 0 0 0 0 -0 -0 -0 
742 64.3725 0.13725 0.567575 0 0 0 0 0 0 -0 -0 -0 
817 57.0505 0.1367 0.590233 0 0 0 0 0 0 -0 -0 -0 
1053 30.6735 0.148776 0.532564 0 0 0 0 0 0 -0 -0 -0 
329 137.139 0.153552 0.507036 0 0 0 0 0 0 -0 -0 -0 
416 112.355 0.166891 0.557166 0 0 0 0 0 0 -0 -0 -0 
418 111.775 0.171217 0.595617 0 0 0 0 0 0 -0 -0 -0 
685 70.567 0.171706 0.512482 0 0 0 0 0 0 -0 -0 -0 
715 67.3695 0.165612 0.524143 0 0 0 0 0 0 -0 -0 -0 
334 135.591 0.179225 0.554552 0 0 0 0 0 0 -0 -0 -0 
456 105.496 0.188106 0.584635 0 0 0 0 0 0 -0 -0 -0 
37 319.927 0.202754 0.5277 0 0 0 0 0 0 -0 -0 -0 
457 105.43 0.223977 0.535146 0 0 0 0 0 0 -0 -0 -0 
914 46.1725 0.214173 0.580572 0 0 0 0 0 0 -0 -0 -0 
186 185.401 0.225448 0.588909 0 0 0 0 0 0 -0 -0 -0 
636 77.5485 0.241615 0.553914 0 0 0 0 0 0 -0 -0 -0 
878 49.9915 0.246566 0.53912 0 0 0 0 0 0 -0 -0 -0 
150 201.341 0.0492594 0.675482 0 0 0 0 0 0 -0 -0 -0 
433 109.716 0.028216 0.660036 0 0 0 0 0 0 -0 -0 -0 
471 103.329 0.0265806 0.614729 0 0 0 0 0 0 -0 -0 -0 
625 79.859 0.0360489 0.63503 0 0 0 0 0 0 -0 -0 -0 
953 42.067 0.0340647 0.679116 0 0 0 0 0 0 -0 -0 -0 
162 195.048 0.0683037 0.657019 0 0 0 0 0 0 -0 -0 -0 
431 109.956 0.0685377 0.600399 0 0 0 0 0 0 -0 -0 -0 
885 49.253 0.0571044 0.639358 0 0 0 0 0 0 -0 -0 -0 
151 201.019 0.0870718 0.635153 0 0 0 0 0 0 -0 -0 -0 
829 55.1945 0.076405 0.609142 0 0 0 0 0 0 -0 -0 -0 
73 270.196 0.110395 0.641606 0 0 0 0 0 0 -0 -0 -0 
200 180.186 0.141503 0.682435 0 0 0 0 0 0 -0 -0 -0 
227 169.265 0.131916 0.628334 0 0 0 0 0 0 -0 -0 -0 
301 145.474 0.125635 0.693942 0 0 0 0 0 0 -0 -0 -0 
992 38.0245 0.141552 0.641923 0 0 0 0 0 0 -0 -0 -0 
79 267.439 0.152466 0.602559 0 0 0 0 0 0 -0 -0 -0 
249 163.526 0.158549 0.684857 0 0 0 0 0 0 -0 -0 -0 
349 129.25 0.168507 0.645267 0 0 0 0 0 0 -0 -0 -0 
693 70.128 0.169871 0.694241 0 0 0 0 0 0 -0 -0 -0 
6 435.745 0.194767 0.682052 0 0 0 0 0 0 -0 -0 -0 
631 78.2665 0.180435 0.603101 0 0 0 0 0 0 -0 -0 -0 
487 100.056 0.212092 0.606581 0 0 0 0 0 0 -0 -0 -0 
696 69.774 0.224578 0.637874 0 0 0 0 0 0 -0 -0 -0 
753 63.0445 0.228947 0.65634 0 0 0 0 0 0 -0 -0 -0 
1017 35.526 0.0207619 0.782921 0 0 0 0 0 0 -0 -0 -0 
159 196.453 0.0447138 0.758425 0 0 0 0 0 0 -0 -0 -0 
293 147.637 0.0266711 0.734577 0 0 0 0 0 0 -0 -0 -0 
343 131.297 0.0300402 0.784807 0 0 0 0 0 0 -0 -0 -0 
469 103.551 0.0372665 0.710001 0 0 0 0 0 0 -0 -0 -0 
1012 35.918 0.0498415 0.797272 0 0 0 0 0 0 -0 -0 -0 
216 173.465 0.0686909 0.751031 0 0 0 0 0 0 -0 -0 -0 
412 112.998 0.0747553 0.799134 0 0 0 0 0 0 -0 -0 -0 
460 105.061 0.0567467 0.724997 0 0 0 0 0 0 -0 -0 -0 
518 94.096 0.0742379 0.705897 0 0 0 0 0 0 -0 -0 -0 
734 65.0175 0.0624843 0.700374 0 0 0 0 0 0 -0 -0 -0 
751 63.228 0.0575122 0.764719 0 0 0 0 0 0 -0 -0 -0 
958 41.5305 0.067321 0.710443 0 0 0 0 0 0 -0 -0 -0 
123 221 0.0877983 0.735071 0 0 0 0 0 0 -0 -0 -0 
791 59.783 0.0980706 0.7819 0 0 0 0 0 0 -0 -0 -0 
984 38.3305 0.0981512 0.763687 0 0 0 0 0 0 -0 -0 -0 
994 37.778 0.0802633 0.775115 0 0 0 0 0 0 -0 -0 -0 
63 282.111 0.114039 0.760428 0 0 0 0 0 0 -0 -0 -0 
440 107.86 0.101869 0.70413 0 0 0 0 0 0 -0 -0 -0 
224 170.351 0.136174 0.746199 0 0 0 0 0 0 -0 -0 -0 
849 52.5 0.145362 0.723166 0 0 0 0 0 0 -0 -0 -0 
895 47.7935 0.135301 0.786567 0 0 0 0 0 0 -0 -0 -0 
1031 34.18 0.146347 0.738832 0 0 0 0 0 0 -0 -0 -0 
64 280.789 0.156069 0.784625 0 0 0 0 0 0 -0 -0 -0 
491 99.2925 0.166065 0.724754 0 0 0 0 0 0 -0 -0 -0 
657 74.6285 0.151645 0.720746 0 0 0 0 0 0 -0 -0 -0 
818 56.9075 0.171939 0.748094 0 0 0 0 0 0 -0 -0 -0 
933 43.93 0.172452 0.713088 0 0 0 0 0 0 -0 -0 -0 
277 153.371 0.177618 0.784597 0 0 0 0 0 0 -0 -0 -0 
290 147.914 0.192984 0.790208 0 0 0 0 0 0 -0 -0 -0 
917 45.802 0.186049 0.765296 0 0 0 0 0 0 -0 -0 -0 
363 126.268 0.219598 0.768269 0 0 0 0 0 0 -0 -0 -0 
397 116.553 0.207896 0.781245 0 0 0 0 0 0 -0 -0 -0 
22 386.003 0.248044 0.788846 0 0 0 0 0 0 -0 -0 -0 
120 222.815 0.226647 0.709036 0 0 0 0 0 0 -0 -0 -0 
443 107.177 0.0248477 0.824593 0 0 0 0 0 0 -0 -0 -0 
775 61.142 0.0217828 0.885093 0 0 0 0 0 0 -0 -0 -0 
851 52.5635 0.0215817 0.857575 0 0 0 4.77424e+07 -2.42275e+07 0 -3.24644e+09 -8.36019e+08 1.64745e+09 
87 258.879 0.0497625 0.881819 0 0 0 0 0 0 -0 -0 -0 
348 129.471 0.0304974 0.863119 0 0 0 0 0 0 -0 -0 -0 
372 124.207 0.0398068 0.815064 0 0 0 0 0 0 -0 -0 -0 
792 59.7815 0.0487018 0.82279 0 0 0 0 0 0 -0 -0 -0 
894 48.1575 0.0323712 0.830894 0 0 0 0 0 0 -0 -0 -0 
179 188.805 0.0716126 0.864181 0 0 0 0 0 0 -0 -0 -0 
189 184.105 0.0602706 0.809469 0 0 0 0 0 0 -0 -0 -0 
181 186.529 0.0891424 0.813137 0 0 0 0 0 0 -0 -0 -0 
463 104.416 0.0976751 0.856714 0 0 0 0 0 0 -0 -0 -0 
490 99.313 0.0845769 0.886753 0 0 0 0 0 0 -0 -0 -0 
974 39.366 0.0877266 0.858341 0 0 0 0 0 0 -0 -0 -0 
251 163.209 0.110358 0.841951 0 0 0 0 0 0 -0 -0 -0 
748 63.5125 0.10166 0.814079 0 0 0 0 0 0 -0 -0 -0 
985 38.318 0.123419 0.84383 0 0 0 0 0 0 -0 -0 -0 
1011 35.9355 0.120008 0.850285 0 0 0 0 0 0 -0 -0 -0 
267 157.17 0.137063 0.824083 0 0 0 0 0 0 -0 -0 -0 
335 135.249 0.141357 0.892955 0 0 0 0 0 0 -0 -0 -0 
637 77.4865 0.125997 0.81033 0 0 0 0 0 0 -0 -0 -0 
344 130.844 0.150816 0.858478 0 0 0 0 0 0 -0 -0 -0 
543 90.4505 0.161632 0.850508 0 0 0 0 0 0 -0 -0 -0 
561 88.293 0.159285 0.884002 0 0 0 0 0 0 -0 -0 -0 
739 64.5745 0.16853 0.837761 0 0 0 0 0 0 -0 -0 -0 
282 152.242 0.19299 0.845934 0 0 0 0 0 0 -0 -0 -0 
322 139.254 0.178644 0.838841 0 0 0 0 0 0 -0 -0 -0 
663 73.57 0.187278 0.882006 0 0 0 0 0 0 -0 -0 -0 
361 126.352 0.215588 0.819532 0 0 0 0 0 0 -0 -0 -0 
448 106.57 0.209417 0.856785 0 0 0 0 0 0 -0 -0 -0 
452 106.228 0.203972 0.820557 0 0 0 0 0 0 -0 -0 -0 
486 100.148 0.200459 0.883552 0 0 0 0 0 0 -0 -0 -0 
519 93.7025 0.20966 0.894159 0 0 0 0 0 0 -0 -0 -0 
81 265.641 0.227156 0.881212 0 0 0 0 0 0 -0 -0 -0 
603 81.8635 0.225269 0.80588 0 0 0 0 0 0 -0 -0 -0 
136 212.439 0.0296526 0.92652 0 0 0 0 0 0 -0 -0 -0 
966 40.386 0.0494883 0.963204 0 0 0 3.74502e+07 -3.70907e+07 0 -1.86704e+09 -1.83137e+09 1.84912e+09 
330 137.056 0.0636638 0.933777 0 0 0 0 0 0 -0 -0 -0 
589 84.205 0.0530497 0.944317 0 0 0 0 0 0 -0 -0 -0 
99 240.831 0.0995844 0.920413 0 0 0 0 0 0 -0 -0 -0 
211 176.05 0.0792038 0.93376 0 0 0 0 0 0 -0 -0 -0 
100 239.968 0.122843 0.900453 0 0 0 0 0 0 -0 -0 -0 
1030 34.1905 0.120645 0.952772 0 0 0 0 0 0 -0 -0 -0 
548 89.2305 0.133611 0.946416 0 0 0 0 0 0 -0 -0 -0 
605 81.7675 0.143486 0.947797 0 0 0 0 0 0 -0 -0 -0 
804 58.3395 0.13903 0.927828 0 0 0 0 0 0 -0 -0 -0 
935 43.406 0.13864 0.962339 0 0 0 0 0 0 -0 -0 -0 
122 222.026 0.173779 0.903495 0 0 0 0 0 0 -0 -0 -0 
212 175.599 0.155439 0.930918 0 0 0 0 0 0 -0 -0 -0 
649 75.277 0.168285 0.954723 0 0 0 0 0 0 -0 -0 -0 
324 138.917 0.191223 0.918745 0 0 0 0 0 0 -0 -0 -0 
569 86.7815 0.198063 0.952134 0 0 0 0 0 0 -0 -0 -0 
498 97.9235 0.208029 0.949582 0 0 0 0 0 0 -0 -0 -0 
504 96.6985 0.202917 0.918923 0 0 0 0 0 0 -0 -0 -0 
527 92.086 0.216558 0.9345 0 0 0 0 0 0 -0 -0 -0 
1020 35.3085 0.212038 0.917009 0 0 0 0 0 0 -0 -0 -0 
403 115.772 0.236107 0.943608 0 0 0 0 0 0 -0 -0 -0 
478 101.59 0.243366 0.912383 0 0 0 0 0 0 -0 -0 -0 
601 82.2565 0.245929 0.945145 0 0 0 0 0 0 -0 -0 -0 
41 318.724 0.255545 0.0953384 0 0 0 0 0 0 -0 -0 -0 
530 91.7635 0.292287 0.0595559 0 0 0 0 0 0 -0 -0 -0 
692 70.1675 0.280645 0.0623476 0 0 0 0 0 0 -0 -0 -0 
852 52.301 0.297474 0.0411424 0 0 0 0 0 0 -0 -0 -0 
1036 33.468 0.280637 0.0426456 0 0 0 0 0 0 -0 -0 -0 
432 109.943 0.306933 0.0527493 0 0 0 0 0 0 -0 -0 -0 
640 77.08 0.316158 0.0571087 0 0 0 0 0 0 -0 -0 -0 
115 224.147 0.33609 0.0763284 0 0 0 0 0 0 -0 -0 -0 
405 115.076 0.396734 0.0874965 0 0 0 0 0 0 -0 -0 -0 
544 90.4375 0.387179 0.0741437 0 0 0 0 0 0 -0 -0 -0 
655 74.9005 0.392996 0.0524504 0 0 0 0 0 0 -0 -0 -0 
680 71.132 0.386071 0.0444343 0 0 0 0 0 0 -0 -0 -0 
987 38.2305 0.397694 0.0409546 0 0 0 0 0 0 -0 -0 -0 
1009 36.2935 0.382062 0.0604298 0 0 0 0 0 0 -0 -0 -0 
288 148.373 0.41418 0.0628909 0 0 0 0 0 0 -0 -0 -0 
555 88.478 0.40258 0.0557663 0 0 0 0 0 0 -0 -0 -0 
805 58.2165 0.405174 0.081225 0 0 0 0 0 0 -0 -0 -0 
198 181.407 0.448259 0.0700245 0 0 0 0 0 0 -0 -0 -0 
461 104.645 0.429123 0.0559897 0 0 0 0 0 0 -0 -0 -0 
745 63.738 0.437032 0.0457993 0 0 0 0 0 0 -0 -0 -0 
886 48.978 0.435861 0.0693945 0 0 0 0 0 0 -0 -0 -0 
1023 34.9875 0.439927 0.0955447 0 0 0 0 0 0 -0 -0 -0 
173 190.063 0.473888 0.0706013 0 0 0 0 0 0 -0 -0 -0 
664 73.549 0.462002 0.0501074 0 0 0 0 0 0 -0 -0 -0 
145 203.854 0.493785 0.0731534 0 0 0 0 0 0 -0 -0 -0 
858 51.4145 0.484143 0.0423702 0 0 0 0 0 0 -0 -0 -0 
306 144.273 0.266146 0.171606 0 0 0 0 0 0 -0 -0 -0 
922 45.4375 0.271927 0.131675 0 0 0 0 0 0 -0 -0 -0 
264 158.061 0.279086 0.104343 0 0 0 0 0 0 -0 -0 -0 
662 73.88 0.298789 0.189412 0 0 0 0 0 0 -0 -0 -0 
757 62.643 0.277626 0.165382 0 0 0 0 0 0 -0 -0 -0 
979 38.777 0.281376 0.140255 0 0 0 0 0 0 -0 -0 -0 
56 287.118 0.300635 0.122602 0 0 0 0 0 0 -0 -0 -0 
71 274.351 0.321927 0.189853 0 0 0 0 0 0 -0 -0 -0 
374 122.908 0.336667 0.140865 0 0 0 0 0 0 -0 -0 -0 
750 63.241 0.338841 0.174692 0 0 0 0 0 0 -0 -0 -0 
828 55.2165 0.343541 0.12007 0 0 0 0 0 0 -0 -0 -0 
21 387.099 0.365245 0.107727 0 0 0 0 0 0 -0 -0 -0 
713 67.606 0.367135 0.19185 0 0 0 0 0 0 -0 -0 -0 
184 185.81 0.391162 0.151512 0 0 0 0 0 0 -0 -0 -0 
576 85.957 0.395709 0.199108 0 0 0 0 0 0 -0 -0 -0 
803 58.3645 0.377645 0.176197 0 0 0 0 0 0 -0 -0 -0 
945 42.8375 0.382596 0.179356 0 0 0 0 0 0 -0 -0 -0 
1039 33.128 0.380573 0.160636 0 0 0 0 0 0 -0 -0 -0 
289 148.043 0.407689 0.156081 0 0 0 0 0 0 -0 -0 -0 
359 126.594 0.419179 0.183519 0 0 0 0 0 0 -0 -0 -0 
493 98.8795 0.40541 0.110398 0 0 0 0 0 0 -0 -0 -0 
797 59.1355 0.402389 0.189042 0 0 0 0 0 0 -0 -0 -0 
834 54.548 0.412504 0.10004 0 0 0 0 0 0 -0 -0 -0 
951 42.279 0.401055 0.130927 0 0 0 0 0 0 -0 -0 -0 
97 242.704 0.426298 0.119607 0 0 0 0 0 0 -0 -0 -0 
725 66.03 0.443397 0.112213 0 0 0 0 0 0 -0 -0 -0 
395 116.947 0.460208 0.102818 0 0 0 0 0 0 -0 -0 -0 
529 91.8175 0.45434 0.153692 0 0 0 0 0 0 -0 -0 -0 
931 43.96 0.458198 0.194718 0 0 0 0 0 0 -0 -0 -0 
1007 36.6955 0.467785 0.106014 0 0 0 0 0 0 -0 -0 -0 
39 319.257 0.475833 0.164882 0 0 0 0 0 0 -0 -0 -0 
326 137.935 0.497109 0.135379 0 0 0 0 0 0 -0 -0 -0 
545 90.173 0.494364 0.196076 0 0 0 0 0 0 -0 -0 -0 
961 40.6995 0.481973 0.101856 0 0 0 0 0 0 -0 -0 -0 
31 334.34 0.272663 0.272615 0 0 0 0 0 0 -0 -0 -0 
517 94.289 0.259845 0.209107 0 0 0 0 0 0 -0 -0 -0 
553 88.5665 0.251668 0.272675 0 0 0 0 0 0 -0 -0 -0 
262 158.832 0.287592 0.20004 0 0 0 0 0 0 -0 -0 -0 
421 110.773 0.294704 0.278243 0 0 0 0 0 0 -0 -0 -0 
579 85.7465 0.291941 0.242899 0 0 0 0 0 0 -0 -0 -0 
85 259.759 0.321617 0.289008 0 0 0 0 0 0 -0 -0 -0 
331 136.668 0.304908 0.249484 0 0 0 0 0 0 -0 -0 -0 
619 80.223 0.304896 0.206634 0 0 0 0 0 0 -0 -0 -0 
254 161.606 0.341151 0.227009 0 0 0 0 0 0 -0 -0 -0 
800 58.627 0.337483 0.273939 0 0 0 0 0 0 -0 -0 -0 
920 45.6085 0.329871 0.24144 0 0 0 0 0 0 -0 -0 -0 
240 165.518 0.357101 0.215676 0 0 0 0 0 0 -0 -0 -0 
379 122.017 0.359834 0.280711 0 0 0 0 0 0 -0 -0 -0 
495 98.501 0.350151 0.261635 0 0 0 0 0 0 -0 -0 -0 
36 322.14 0.379873 0.246347 0 0 0 0 0 0 -0 -0 -0 
835 54.5035 0.398747 0.233865 0 0 0 0 0 0 -0 -0 -0 
1032 34.0695 0.39753 0.249667 0 0 0 0 0 0 -0 -0 -0 
93 251.785 0.405362 0.293921 0 0 0 0 0 0 -0 -0 -0 
310 143.738 0.416876 0.232964 0 0 0 0 0 0 -0 -0 -0 
464 104.356 0.405288 0.217392 0 0 0 0 0 0 -0 -0 -0 
866 50.9965 0.422152 0.263255 0 0 0 0 0 0 -0 -0 -0 
1003 36.9405 0.417706 0.266448 0 0 0 0 0 0 -0 -0 -0 
35 325.582 0.440381 0.21102 0 0 0 0 0 0 -0 -0 -0 
965 40.311 0.425117 0.247868 0 0 0 0 0 0 -0 -0 -0 
520 93.2305 0.461084 0.217996 0 0 0 0 0 0 -0 -0 -0 
676 71.628 0.471024 0.235225 0 0 0 0 0 0 -0 -0 -0 
774 61.072 0.457517 0.243345 0 0 0 0 0 0 -0 -0 -0 
1041 32.9295 0.46726 0.221863 0 0 0 0 0 0 -0 -0 -0 
259 159.413 0.475851 0.274135 0 0 0 0 0 0 -0 -0 -0 
279 153.096 0.496912 0.297671 0 0 0 0 0 0 -0 -0 -0 
447 106.668 0.492618 0.252196 0 0 0 0 0 0 -0 -0 -0 
505 95.7525 0.483504 0.236388 0 0 0 0 0 0 -0 -0 -0 
728 65.718 0.486312 0.28883 0 0 0 0 0 0 -0 -0 -0 
779 60.61 0.495816 0.223538 0 0 0 0 0 0 -0 -0 -0 
815 57.1265 0.48888 0.215157 0 0 0 0 0 0 -0 -0 -0 
174 190.03 0.267362 0.39067 0 0 0 0 0 0 -0 -0 -0 
419 111.689 0.253937 0.359364 0 0 0 0 0 0 -0 -0 -0 
560 88.3205 0.262713 0.342002 0 0 0 0 0 0 -0 -0 -0 
612 80.884 0.256386 0.321062 0 0 0 0 0 0 -0 -0 -0 
213 174.913 0.289602 0.352176 0 0 0 0 0 0 -0 -0 -0 
541 90.7185 0.276298 0.350353 0 0 0 0 0 0 -0 -0 -0 
567 87.169 0.299086 0.385485 0 0 0 0 0 0 -0 -0 -0 
711 67.914 0.290362 0.307183 0 0 0 0 0 0 -0 -0 -0 
720 66.9415 0.279575 0.376933 0 0 0 0 0 0 -0 -0 -0 
214 173.981 0.309068 0.354447 0 0 0 0 0 0 -0 -0 -0 
400 116.207 0.303442 0.304845 0 0 0 0 0 0 -0 -0 -0 
1021 35.2325 0.312641 0.390918 0 0 0 0 0 0 -0 -0 -0 
91 253.74 0.345406 0.324915 0 0 0 0 0 0 -0 -0 -0 
177 189.131 0.327003 0.369876 0 0 0 0 0 0 -0 -0 -0 
147 202.512 0.357863 0.395791 0 0 0 0 0 0 -0 -0 -0 
297 146.956 0.374977 0.385254 0 0 0 0 0 0 -0 -0 -0 
323 139.152 0.370276 0.328217 0 0 0 0 0 0 -0 -0 -0 
833 54.697 0.360717 0.324163 0 0 0 0 0 0 -0 -0 -0 
960 40.957 0.36303 0.30863 0 0 0 0 0 0 -0 -0 -0 
164 194.679 0.386595 0.338946 0 0 0 0 0 0 -0 -0 -0 
89 255.725 0.43009 0.311846 0 0 0 0 0 0 -0 -0 -0 
312 142.345 0.439402 0.377028 0 0 0 0 0 0 -0 -0 -0 
72 270.51 0.456139 0.30469 0 0 0 0 0 0 -0 -0 -0 
291 147.737 0.453513 0.3877 0 0 0 0 0 0 -0 -0 -0 
15 401.6 0.480776 0.388812 0 0 0 0 0 0 -0 -0 -0 
701 69.4085 0.499744 0.337615 0 0 0 0 0 0 -0 -0 -0 
904 47.208 0.487473 0.309341 0 0 0 0 0 0 -0 -0 -0 
318 140.028 0.266873 0.490683 0 0 0 0 0 0 -0 -0 -0 
762 62.402 0.269642 0.45384 0 0 0 0 0 0 -0 -0 -0 
166 192.607 0.28447 0.421506 0 0 0 0 0 0 -0 -0 -0 
425 110.356 0.279123 0.474124 0 0 0 0 0 0 -0 -0 -0 
887 48.9065 0.287871 0.465729 0 0 0 0 0 0 -0 -0 -0 
975 39.2845 0.291996 0.47123 0 0 0 0 0 0 -0 -0 -0 
54 293.766 0.307475 0.448871 0 0 0 0 0 0 -0 -0 -0 
902 47.3045 0.320483 0.406372 0 0 0 0 0 0 -0 -0 -0 
235 166.219 0.340514 0.417586 0 0 0 0 0 0 -0 -0 -0 
373 122.978 0.348429 0.470973 0 0 0 0 0 0 -0 -0 -0 
423 110.561 0.336838 0.470824 0 0 0 0 0 0 -0 -0 -0 
429 110.124 0.326513 0.425406 0 0 0 0 0 0 -0 -0 -0 
494 98.521 0.326163 0.472335 0 0 0 0 0 0 -0 -0 -0 
854 51.999 0.332574 0.4452 0 0 0 0 0 0 -0 -0 -0 
209 176.824 0.363184 0.463787 0 0 0 0 0 0 -0 -0 -0 
802 58.4285 0.352869 0.441571 0 0 0 0 0 0 -0 -0 -0 
104 237.231 0.392129 0.416416 0 0 0 0 0 0 -0 -0 -0 
414 112.665 0.375683 0.437276 0 0 0 0 0 0 -0 -0 -0 
554 88.5085 0.382431 0.464805 0 0 0 0 0 0 -0 -0 -0 
57 286.551 0.417815 0.401442 0 0 0 0 0 0 -0 -0 -0 
80 266.744 0.406027 0.49422 0 0 0 0 0 0 -0 -0 -0 
673 72.259 0.422765 0.471827 0 0 0 0 0 0 -0 -0 -0 
168 192.472 0.44175 0.43858 0 0 0 0 0 0 -0 -0 -0 
938 43.207 0.434148 0.405324 0 0 0 0 0 0 -0 -0 -0 
1037 33.4365 0.429895 0.440099 0 0 0 0 0 0 -0 -0 -0 
112 231.254 0.460075 0.477177 0 0 0 0 0 0 -0 -0 -0 
712 67.906 0.45917 0.421722 0 0 0 0 0 0 -0 -0 -0 
865 51.0135 0.45326 0.424615 0 0 0 0 0 0 -0 -0 -0 
1035 33.573 0.472743 0.46386 0 0 0 0 0 0 -0 -0 -0 
357 126.936 0.478779 0.486727 0 0 0 0 0 0 -0 -0 -0 
380 121.082 0.491054 0.477912 0 0 0 0 0 0 -0 -0 -0 
255 161.397 0.268379 0.546389 0 0 0 0 0 0 -0 -0 -0 
410 114.174 0.25482 0.538286 0 0 0 0 0 0 -0 -0 -0 
755 62.7785 0.273512 0.591103 0 0 0 0 0 0 -0 -0 -0 
126 219.38 0.28666 0.528465 0 0 0 0 0 0 -0 -0 -0 
667 73.075 0.278379 0.573304 0 0 0 0 0 0 -0 -0 -0 
807 57.699 0.299711 0.507839 0 0 0 0 0 0 -0 -0 -0 
1008 36.5 0.27622 0.501412 0 0 0 0 0 0 -0 -0 -0 
46 310.911 0.31159 0.560074 0 0 0 0 0 0 -0 -0 -0 
53 297.017 0.341474 0.544481 0 0 0 0 0 0 -0 -0 -0 
814 57.383 0.328678 0.598687 0 0 0 0 0 0 -0 -0 -0 
32 331.709 0.371347 0.578214 0 0 0 0 0 0 -0 -0 -0 
580 85.7185 0.358052 0.509719 0 0 0 0 0 0 -0 -0 -0 
787 60.0805 0.352488 0.596512 0 0 0 0 0 0 -0 -0 -0 
287 148.477 0.385707 0.507062 0 0 0 0 0 0 -0 -0 -0 
827 55.3 0.388223 0.543879 0 0 0 0 0 0 -0 -0 -0 
83 260.979 0.400591 0.590073 0 0 0 0 0 0 -0 -0 -0 
581 85.475 0.417775 0.592474 0 0 0 0 0 0 -0 -0 -0 
1045 32.333 0.423303 0.599682 0 0 0 0 0 0 -0 -0 -0 
27 365.457 0.435019 0.539105 0 0 0 0 0 0 -0 -0 -0 
485 100.394 0.458139 0.538323 0 0 0 0 0 0 -0 -0 -0 
675 71.7105 0.470734 0.516885 0 0 0 0 0 0 -0 -0 -0 
450 106.386 0.498851 0.508455 0 0 0 0 0 0 -0 -0 -0 
686 70.548 0.483379 0.519547 0 0 0 0 0 0 -0 -0 -0 
695 69.918 0.49021 0.514326 0 0 0 0 0 0 -0 -0 -0 
9 425.875 0.252746 0.638432 0 0 0 0 0 0 -0 -0 -0 
1042 32.7195 0.27236 0.694388 0 0 0 0 0 0 -0 -0 -0 
58 284.882 0.287942 0.629537 0 0 0 0 0 0 -0 -0 -0 
717 67.17 0.275245 0.674607 0 0 0 0 0 0 -0 -0 -0 
131 215.798 0.314726 0.667299 0 0 0 0 0 0 -0 -0 -0 
697 69.674 0.305526 0.626992 0 0 0 0 0 0 -0 -0 -0 
7 430.522 0.346461 0.684801 0 0 0 0 0 0 -0 -0 -0 
375 122.76 0.373883 0.662056 0 0 0 0 0 0 -0 -0 -0 
690 70.293 0.371124 0.69638 0 0 0 0 0 0 -0 -0 -0 
217 173.45 0.388522 0.656957 0 0 0 0 0 0 -0 -0 -0 
578 85.828 0.396512 0.695769 0 0 0 0 0 0 -0 -0 -0 
1013 35.858 0.398964 0.644926 0 0 0 0 0 0 -0 -0 -0 
11 423.122 0.423662 0.684295 0 0 0 0 0 0 -0 -0 -0 
955 41.8105 0.402108 0.653343 0 0 0 0 0 0 -0 -0 -0 
408 114.713 0.449211 0.61072 0 0 0 0 0 0 -0 -0 -0 
769 61.678 0.43953 0.616631 0 0 0 0 0 0 -0 -0 -0 
193 182.755 0.453232 0.66386 0 0 0 0 0 0 -0 -0 -0 
781 60.3905 0.460552 0.699777 0 0 0 0 0 0 -0 -0 -0 
840 54.109 0.464727 0.673795 0 0 0 0 0 0 -0 -0 -0 
1055 30.608 0.455577 0.625228 0 0 0 0 0 0 -0 -0 -0 
19 388.889 0.475926 0.600164 0 0 0 0 0 0 -0 -0 -0 
892 48.556 0.478299 0.687052 0 0 0 0 0 0 -0 -0 -0 
630 78.2935 0.268786 0.710276 0 0 0 0 0 0 -0 -0 -0 
646 75.853 0.266413 0.737485 0 0 0 0 0 0 -0 -0 -0 
989 38.184 0.267455 0.758296 0 0 0 0 0 0 -0 -0 -0 
143 207.518 0.282784 0.718896 0 0 0 0 0 0 -0 -0 -0 
248 163.631 0.275259 0.78179 0 0 0 0 0 0 -0 -0 -0 
841 53.745 0.285386 0.767858 0 0 0 0 0 0 -0 -0 -0 
8 428.868 0.308923 0.785294 0 0 0 0 0 0 -0 -0 -0 
737 64.8125 0.322799 0.709752 0 0 0 0 0 0 -0 -0 -0 
514 94.3415 0.336308 0.776642 0 0 0 0 0 0 -0 -0 -0 
819 56.8415 0.345525 0.78424 0 0 0 0 0 0 -0 -0 -0 
121 222.262 0.36746 0.777092 0 0 0 0 0 0 -0 -0 -0 
881 49.675 0.367528 0.726588 0 0 0 0 0 0 -0 -0 -0 
194 182.574 0.381442 0.723107 0 0 0 0 0 0 -0 -0 -0 
202 179.904 0.398475 0.74477 0 0 0 0 0 0 -0 -0 -0 
350 128.96 0.440069 0.767089 0 0 0 0 0 0 -0 -0 -0 
513 94.448 0.446148 0.732075 0 0 0 0 0 0 -0 -0 -0 
647 75.819 0.428445 0.775337 0 0 0 0 0 0 -0 -0 -0 
824 56.087 0.446993 0.701565 0 0 0 0 0 0 -0 -0 -0 
874 50.689 0.447604 0.796565 0 0 0 0 0 0 -0 -0 -0 
172 190.703 0.47093 0.725588 0 0 0 0 0 0 -0 -0 -0 
238 165.537 0.455065 0.767697 0 0 0 0 0 0 -0 -0 -0 
298 146.951 0.471949 0.788159 0 0 0 0 0 0 -0 -0 -0 
635 77.6165 0.452991 0.712191 0 0 0 0 0 0 -0 -0 -0 
778 60.6725 0.458466 0.727674 0 0 0 0 0 0 -0 -0 -0 
1029 34.3715 0.462734 0.79427 0 0 0 0 0 0 -0 -0 -0 
48 304.215 0.495 0.707255 0 0 0 0 0 0 -0 -0 -0 
765 62.24 0.480687 0.755179 0 0 0 0 0 0 -0 -0 -0 
1050 31.107 0.480405 0.799924 0 0 0 0 0 0 -0 -0 -0 
427 110.267 0.250097 0.881702 0 0 0 0 0 0 -0 -0 -0 
444 107.147 0.260134 0.896738 0 0 0 0 0 0 -0 -0 -0 
129 217.084 0.278819 0.868569 0 0 0 0 0 0 -0 -0 -0 
415 112.653 0.295162 0.894934 0 0 0 0 0 0 -0 -0 -0 
528 92.002 0.284321 0.815004 0 0 0 0 0 0 -0 -0 -0 
950 42.317 0.293836 0.866591 0 0 0 0 0 0 -0 -0 -0 
677 71.564 0.32214 0.863988 0 0 0 0 0 0 -0 -0 -0 
687 70.5245 0.319069 0.887761 0 0 0 0 0 0 -0 -0 -0 
733 65.0535 0.313177 0.875603 0 0 0 0 0 0 -0 -0 -0 
210 176.677 0.331098 0.896822 0 0 0 0 0 0 -0 -0 -0 
525 92.749 0.328949 0.846689 0 0 0 0 0 0 -0 -0 -0 
55 292.114 0.350357 0.847989 0 0 0 0 0 0 -0 -0 -0 
538 90.9985 0.370471 0.880238 0 0 0 0 0 0 -0 -0 -0 
761 62.4345 0.36728 0.829947 0 0 0 0 0 0 -0 -0 -0 
880 49.7385 0.361488 0.897184 0 0 0 0 0 0 -0 -0 -0 
1004 36.9285 0.364129 0.881381 0 0 0 0 0 0 -0 -0 -0 
154 199.249 0.379998 0.839817 0 0 0 0 0 0 -0 -0 -0 
360 126.502 0.39609 0.845642 0 0 0 0 0 0 -0 -0 -0 
459 105.26 0.388855 0.885635 0 0 0 0 0 0 -0 -0 -0 
68 275.746 0.41339 0.808361 0 0 0 0 0 0 -0 -0 -0 
378 122.047 0.400092 0.889323 0 0 0 0 0 0 -0 -0 -0 
381 120.131 0.411938 0.881703 0 0 0 0 0 0 -0 -0 -0 
921 45.5915 0.418772 0.864576 0 0 0 0 0 0 -0 -0 -0 
300 145.673 0.446483 0.844695 0 0 0 0 0 0 -0 -0 -0 
342 132.667 0.4276 0.862431 0 0 0 0 0 0 -0 -0 -0 
346 129.475 0.43341 0.816318 0 0 0 0 0 0 -0 -0 -0 
740 64.5065 0.442782 0.80806 0 0 0 0 0 0 -0 -0 -0 
321 139.326 0.469751 0.84067 0 0 0 0 0 0 -0 -0 -0 
377 122.154 0.458014 0.819957 0 0 0 0 0 0 -0 -0 -0 
95 244.994 0.495356 0.809212 0 0 0 0 0 0 -0 -0 -0 
178 188.867 0.483118 0.87549 0 0 0 0 0 0 -0 -0 -0 
364 126.231 0.262536 0.93955 0 0 0 0 0 0 -0 -0 -0 
526 92.732 0.252504 0.92392 0 0 0 0 0 0 -0 -0 -0 
618 80.2345 0.269211 0.910465 0 0 0 0 0 0 -0 -0 -0 
683 70.723 0.274097 0.932717 0 0 0 0 0 0 -0 -0 -0 
1027 34.7215 0.274999 0.913144 0 0 0 0 0 0 -0 -0 -0 
243 164.163 0.285778 0.934391 0 0 0 0 0 0 -0 -0 -0 
623 80.037 0.296882 0.953375 0 0 0 0 0 0 -0 -0 -0 
138 211.351 0.309147 0.924655 0 0 0 0 0 0 -0 -0 -0 
426 110.315 0.324309 0.943665 0 0 0 0 0 0 -0 -0 -0 
588 84.3515 0.340406 0.930529 0 0 0 0 0 0 -0 -0 -0 
607 81.645 0.333752 0.948726 0 0 0 0 0 0 -0 -0 -0 
237 165.626 0.352802 0.932478 0 0 0 0 0 0 -0 -0 -0 
305 144.506 0.368241 0.923158 0 0 0 0 0 0 -0 -0 -0 
798 58.997 0.374182 0.953712 0 0 0 0 0 0 -0 -0 -0 
956 41.744 0.368266 0.957757 0 0 0 0 0 0 -0 -0 -0 
446 106.674 0.379798 0.905655 0 0 0 0 0 0 -0 -0 -0 
506 95.7135 0.392944 0.919672 0 0 0 0 0 0 -0 -0 -0 
521 92.9005 0.381193 0.943349 0 0 0 0 0 0 -0 -0 -0 
659 74.333 0.393956 0.951015 0 0 0 0 0 0 -0 -0 -0 
1028 34.456 0.386719 0.910637 0 0 0 0 0 0 -0 -0 -0 
308 144.042 0.423665 0.914466 0 0 0 0 0 0 -0 -0 -0 
437 108.826 0.411386 0.924177 0 0 0 0 0 0 -0 -0 -0 
482 100.978 0.402487 0.944598 0 0 0 0 0 0 -0 -0 -0 
669 72.8975 0.415433 0.954325 0 0 0 0 0 0 -0 -0 -0 
788 60.051 0.422008 0.952184 0 0 0 0 0 0 -0 -0 -0 
183 185.834 0.439654 0.900689 0 0 0 0 0 0 -0 -0 -0 
604 81.811 0.447012 0.950412 0 0 0 0 0 0 -0 -0 -0 
644 76.0885 0.439182 0.949286 0 0 0 0 0 0 -0 -0 -0 
729 65.533 0.428806 0.948296 0 0 0 0 0 0 -0 -0 -0 
1022 35.1375 0.433093 0.935134 0 0 0 0 0 0 -0 -0 -0 
1054 30.653 0.447167 0.929482 0 0 0 0 0 0 -0 -0 -0 
70 274.748 0.462319 0.912346 0 0 0 0 0 0 -0 -0 -0 
268 157.127 0.490313 0.933817 0 0 0 0 0 0 -0 -0 -0 
897 47.761 0.49887 0.954443 0 0 0 0 0 0 -0 -0 -0 
976 39.2175 0.483003 0.957933 0 0 0 0 0 0 -0 -0 -0 
140 209.911 0.514463 0.0733984 0 0 0 0 0 0 -0 -0 -0 
222 171.599 0.542185 0.0679435 0 0 0 0 0 0 -0 -0 -0 
977 39.2015 0.532279 0.0474698 0 0 0 0 0 0 -0 -0 -0 
82 264.799 0.56339 0.0845204 0 0 0 0 0 0 -0 -0 -0 
394 117.061 0.582559 0.0567504 0 0 0 0 0 0 -0 -0 -0 