ITEM: TIMESTEP
0
ITEM: NUMBER OF ATOMS
50
ITEM: BOX BOUNDS pp pp pp
-10099.9 10099.9
-2700 2700
-100 100
ITEM: ATOMS id radius mass 
1262 99.946 5.70844e+09 
1263 99.946 5.70844e+09 
1287 99.946 5.70844e+09 
1288 99.946 5.70844e+09 
1264 99.946 5.70844e+09 
1265 99.946 5.70844e+09 
1289 99.946 5.70844e+09 
1290 99.946 5.70844e+09 
1266 99.946 5.70844e+09 
1267 99.946 5.70844e+09 
1268 99.946 5.70844e+09 
1291 99.946 5.70844e+09 
1292 99.946 5.70844e+09 
1293 99.946 5.70844e+09 
1269 99.946 5.70844e+09 
1270 99.946 5.70844e+09 
1271 99.946 5.70844e+09 
1294 99.946 5.70844e+09 
1295 99.946 5.70844e+09 
1296 99.946 5.70844e+09 
1272 99.946 5.70844e+09 
1273 99.946 5.70844e+09 
1297 99.946 5.70844e+09 
1298 99.946 5.70844e+09 
1274 99.946 5.70844e+09 
1275 99.946 5.70844e+09 
1276 99.946 5.70844e+09 
1299 99.946 5.70844e+09 
1300 99.946 5.70844e+09 
1301 99.946 5.70844e+09 
1277 99.946 5.70844e+09 
1278 99.946 5.70844e+09 
1279 99.946 5.70844e+09 
1302 99.946 5.70844e+09 
1303 99.946 5.70844e+09 
1304 99.946 5.70844e+09 
1280 99.946 5.70844e+09 
1281 99.946 5.70844e+09 
1282 99.946 5.70844e+09 
1305 99.946 5.70844e+09 
1306 99.946 5.70844e+09 
1307 99.946 5.70844e+09 
1283 99.946 5.70844e+09 
1284 99.946 5.70844e+09 
1308 99.946 5.70844e+09 
1309 99.946 5.70844e+09 
1285 99.946 5.70844e+09 
1286 99.946 5.70844e+09 
1310 99.946 5.70844e+09 
1311 99.946 5.70844e+09 
