ITEM: TIMESTEP
0
ITEM: NUMBER OF ENTRIES
2275
ITEM: BOX BOUNDS pp pp pp
-10099.9 10099.9
-2700 2700
-100 100
ITEM: ENTRIES c_4b[1] c_4b[2] c_4d[1] c_4d[2] c_4d[3] c_4d[4] c_4d[5] 
1161 1162 1.999 2 0 0 0 
1162 1163 1.999 2 0 0 0 
1163 1164 1.999 2 0 0 0 
705 1165 1.68615 2 0 0 0 
942 1165 1.43058 2 0 0 0 
942 1166 1.43058 2 0 0 0 
1164 1165 1.999 2 0 0 0 
1165 1166 1.999 2 0 0 0 
67 242 4.4006 2 0 0 0 
67 352 4.04209 2 0 0 0 
67 358 4.02541 2 0 0 0 
67 550 3.64897 2 0 0 0 
550 705 1.57723 2 0 0 0 
550 942 1.32166 2 0 0 0 
1166 1167 1.999 2 0 0 0 
1167 1168 1.999 2 0 0 0 
1168 1169 1.999 2 0 0 0 
1169 1170 1.999 2 0 0 0 
1170 1171 1.999 2 0 0 0 
176 242 3.53447 2 0 0 0 
176 783 2.49505 2 0 0 0 
176 1171 2.89176 2 0 0 0 
252 783 2.23286 2 0 0 0 
252 910 2.09352 2 0 0 0 
252 946 2.0566 2 0 0 0 
252 983 2.01416 2 0 0 0 
783 1172 1.60229 2 0 0 0 
910 1173 1.46294 2 0 0 0 
983 1173 1.38358 2 0 0 0 
1171 1172 1.999 2 0 0 0 
1172 1173 1.999 2 0 0 0 
1173 1174 1.999 2 0 0 0 
215 825 2.29682 2 0 0 0 
215 1174 2.73863 2 0 0 0 
215 1175 2.73863 2 0 0 0 
825 983 0.94177 2 0 0 0 
825 1174 1.55719 2 0 0 0 
1174 1175 1.999 2 0 0 0 
1175 1176 1.999 2 0 0 0 
125 215 3.93523 2 0 0 0 
125 413 3.32453 2 0 0 0 
125 1052 2.50451 2 0 0 0 
125 1176 3.1956 2 0 0 0 
125 1177 3.1956 2 0 0 0 
1176 1177 1.999 2 0 0 0 
1177 1178 1.999 2 0 0 0 
1178 1179 1.999 2 0 0 0 
231 764 2.30594 2 0 0 0 
391 466 2.22009 2 0 0 0 
391 583 2.02932 2 0 0 0 
391 764 1.80276 2 0 0 0 
391 1024 1.52973 2 0 0 0 
764 1051 0.934165 2 0 0 0 
1024 1180 1.34964 2 0 0 0 
1024 1181 1.34964 2 0 0 0 
1179 1180 1.999 2 0 0 0 
1180 1181 1.999 2 0 0 0 
314 466 2.46122 2 0 0 0 
314 500 2.39622 2 0 0 0 
314 575 2.28091 2 0 0 0 
314 583 2.27046 2 0 0 0 
575 1182 1.85969 2 0 0 0 
575 1183 1.85969 2 0 0 0 
1181 1182 1.999 2 0 0 0 
1182 1183 1.999 2 0 0 0 
1183 1184 1.999 2 0 0 0 
392 499 2.15513 2 0 0 0 
392 1184 2.17584 2 0 0 0 
1015 1185 1.35506 2 0 0 0 
1184 1185 1.999 2 0 0 0 
1185 1186 1.999 2 0 0 0 
30 67 6.24275 2 0 0 0 
30 265 5.06255 2 0 0 0 
30 358 4.75138 2 0 0 0 
30 549 4.37851 2 0 0 0 
30 550 4.37494 2 0 0 0 
30 705 4.17101 2 0 0 0 
352 367 2.53064 2 0 0 0 
352 658 2.02865 2 0 0 0 
352 716 1.95564 2 0 0 0 
716 754 1.30195 2 0 0 0 
242 658 2.38716 2 0 0 0 
52 94 5.43953 2 0 0 0 
52 176 4.86472 2 0 0 0 
52 242 4.61467 2 0 0 0 
52 407 4.11992 2 0 0 0 
52 1057 3.27531 2 0 0 0 
973 1057 0.699575 2 0 0 0 
94 215 4.2062 2 0 0 0 
94 252 4.09714 2 0 0 0 
94 299 3.92615 2 0 0 0 
94 382 3.66803 2 0 0 0 
94 1046 2.78988 2 0 0 0 
299 868 1.96813 2 0 0 0 
413 480 2.14036 2 0 0 0 
135 231 3.81313 2 0 0 0 
246 466 2.67861 2 0 0 0 
246 681 2.34788 2 0 0 0 
500 681 1.68527 2 0 0 0 
265 358 2.8452 2 0 0 0 
508 760 1.57709 2 0 0 0 
20 28 7.46152 2 0 0 0 
20 52 6.85438 2 0 0 0 
20 386 5.0736 2 0 0 0 
20 407 5.02939 2 0 0 0 
407 794 1.74251 2 0 0 0 
382 396 2.36971 2 0 0 0 
386 396 2.36043 2 0 0 0 
386 794 1.78672 2 0 0 0 
396 794 1.7638 2 0 0 0 
86 107 4.93492 2 0 0 0 
86 160 4.54881 2 0 0 0 
86 299 4.05419 2 0 0 0 
86 382 3.79608 2 0 0 0 
86 480 3.60704 2 0 0 0 
86 516 3.53828 2 0 0 0 
86 651 3.34561 2 0 0 0 
160 351 3.2401 2 0 0 0 
160 477 2.97046 2 0 0 0 
516 592 1.77847 2 0 0 0 
351 651 2.0369 2 0 0 0 
477 842 1.55201 2 0 0 0 
69 204 4.54693 2 0 0 0 
69 246 4.39405 2 0 0 0 
69 351 4.04235 2 0 0 0 
69 477 3.7727 2 0 0 0 
16 41 7.19712 2 0 0 0 
16 69 6.76582 2 0 0 0 
16 313 5.43067 2 0 0 0 
16 500 4.98538 2 0 0 0 
16 517 4.95277 2 0 0 0 
16 553 4.89555 2 0 0 0 
523 553 1.81424 2 0 0 0 
303 317 2.85923 2 0 0 0 
303 674 2.172 2 0 0 0 
317 674 2.12861 2 0 0 0 
13 20 8.05268 2 0 0 0 
13 75 6.85867 2 0 0 0 
13 142 6.26134 2 0 0 0 
13 265 5.74894 2 0 0 0 
13 317 5.57867 2 0 0 0 
13 714 4.84619 2 0 0 0 
13 754 4.80076 2 0 0 0 
633 823 1.34186 2 0 0 0 
107 386 3.53147 2 0 0 0 
107 396 3.50855 2 0 0 0 
107 900 2.81603 2 0 0 0 
531 592 1.75096 2 0 0 0 
592 900 1.31154 2 0 0 0 
24 160 5.73525 2 0 0 0 
24 204 5.57255 2 0 0 0 
24 269 5.33864 2 0 0 0 
24 285 5.27462 2 0 0 0 
24 295 5.25233 2 0 0 0 
24 477 4.79832 2 0 0 0 
24 531 4.69722 2 0 0 0 
24 653 4.53154 2 0 0 0 
24 842 4.31681 2 0 0 0 
204 924 2.24266 2 0 0 0 
204 1005 2.1602 2 0 0 0 
285 924 1.94474 2 0 0 0 
285 1026 1.84052 2 0 0 0 
924 1005 0.82089 2 0 0 0 
313 441 2.49802 2 0 0 0 
313 1005 1.79 2 0 0 0 
436 523 2.01693 2 0 0 0 
441 1026 1.42468 2 0 0 0 
191 303 3.28526 2 0 0 0 
191 337 3.18229 2 0 0 0 
191 465 2.87724 2 0 0 0 
191 674 2.55465 2 0 0 0 
465 898 1.51993 2 0 0 0 
75 142 4.77851 2 0 0 0 
75 165 4.61502 2 0 0 0 
75 311 4.1124 2 0 0 0 
165 311 3.35159 2 0 0 0 
165 327 3.30644 2 0 0 0 
165 643 2.68889 2 0 0 0 
165 877 2.42812 2 0 0 0 
142 327 3.46992 2 0 0 0 
28 142 5.67019 2 0 0 0 
28 233 5.2491 2 0 0 0 
28 281 5.10255 2 0 0 0 
28 327 4.95894 2 0 0 0 
28 393 4.75537 2 0 0 0 
28 879 4.07854 2 0 0 0 
233 383 2.8702 2 0 0 0 
233 393 2.84526 2 0 0 0 
233 453 2.72671 2 0 0 0 
393 823 1.73721 2 0 0 0 
23 107 6.13754 2 0 0 0 
23 233 5.46724 2 0 0 0 
23 295 5.26851 2 0 0 0 
23 329 5.16913 2 0 0 0 
23 393 4.97351 2 0 0 0 
23 592 4.63305 2 0 0 0 
23 668 4.52698 2 0 0 0 
23 671 4.52343 2 0 0 0 
23 896 4.27557 2 0 0 0 
627 668 1.52442 2 0 0 0 
627 715 1.46887 2 0 0 0 
668 845 1.25646 2 0 0 0 
295 333 2.83342 2 0 0 0 
295 668 2.20002 2 0 0 0 
295 891 1.9577 2 0 0 0 
333 685 2.06832 2 0 0 0 
333 845 1.88986 2 0 0 0 
653 891 1.23691 2 0 0 0 
653 948 1.17539 2 0 0 0 
4 174 6.43095 2 0 0 0 
4 269 6.08774 2 0 0 0 
4 285 6.02372 2 0 0 0 
4 318 5.93093 2 0 0 0 
4 410 5.6724 2 0 0 0 
4 419 5.64754 2 0 0 0 
4 441 5.60789 2 0 0 0 
4 457 5.58496 2 0 0 0 
4 878 5.03057 2 0 0 0 
4 890 5.01767 2 0 0 0 
4 1026 4.8781 2 0 0 0 
50 150 5.01212 2 0 0 0 
50 260 4.58851 2 0 0 0 
50 311 4.42319 2 0 0 0 
50 431 4.09827 2 0 0 0 
50 599 3.82839 2 0 0 0 
50 625 3.79729 2 0 0 0 
50 643 3.76049 2 0 0 0 
50 811 3.57339 2 0 0 0 
50 885 3.49123 2 0 0 0 
260 337 2.93814 2 0 0 0 
260 919 2.04615 2 0 0 0 
260 1010 1.95075 2 0 0 0 
337 898 1.82498 2 0 0 0 
337 911 1.81096 2 0 0 0 
599 911 1.29232 2 0 0 0 
311 465 2.46776 2 0 0 0 
311 599 2.25416 2 0 0 0 
643 811 1.33647 2 0 0 0 
133 151 4.15074 2 0 0 0 
133 281 3.6635 2 0 0 0 
133 431 3.24012 2 0 0 0 
133 829 2.6925 2 0 0 0 
133 836 2.68373 2 0 0 0 
133 877 2.64156 2 0 0 0 
281 327 2.90228 2 0 0 0 
570 836 1.4108 2 0 0 0 
92 281 4.06033 2 0 0 0 
92 453 3.59459 2 0 0 0 
92 501 3.50916 2 0 0 0 
92 722 3.20036 2 0 0 0 
92 836 3.08056 2 0 0 0 
453 879 1.55615 2 0 0 0 
501 558 1.85563 2 0 0 0 
501 722 1.63476 2 0 0 0 
722 915 1.12278 2 0 0 0 
383 453 2.25792 2 0 0 0 
383 606 2.01762 2 0 0 0 
383 609 2.01465 2 0 0 0 
558 606 1.70077 2 0 0 0 
558 742 1.52757 2 0 0 0 
558 817 1.45435 2 0 0 0 
606 722 1.47991 2 0 0 0 
609 645 1.57322 2 0 0 0 
645 742 1.40299 2 0 0 0 
742 817 1.21423 2 0 0 0 
329 609 2.18535 2 0 0 0 
329 627 2.16657 2 0 0 0 
329 1053 1.67813 2 0 0 0 
416 418 2.2413 2 0 0 0 
416 715 1.79724 2 0 0 0 
418 631 1.90041 2 0 0 0 
685 715 1.37936 2 0 0 0 
685 845 1.23288 2 0 0 0 
334 416 2.47946 2 0 0 0 
334 456 2.41087 2 0 0 0 
456 631 1.83762 2 0 0 0 
37 269 4.75635 2 0 0 0 
37 333 4.56191 2 0 0 0 
37 456 4.25422 2 0 0 0 
37 457 4.25358 2 0 0 0 
37 890 3.68629 2 0 0 0 
37 914 3.661 2 0 0 0 
37 948 3.62468 2 0 0 0 
186 457 2.90831 2 0 0 0 
186 487 2.85457 2 0 0 0 
186 696 2.55175 2 0 0 0 
186 914 2.31574 2 0 0 0 
636 878 1.2754 2 0 0 0 
150 162 3.96389 2 0 0 0 
150 460 3.06401 2 0 0 0 
150 469 3.04892 2 0 0 0 
150 885 2.50594 2 0 0 0 
433 953 1.51782 2 0 0 0 
471 1010 1.39423 2 0 0 0 
162 431 3.05004 2 0 0 0 
162 518 2.89144 2 0 0 0 
162 734 2.60065 2 0 0 0 
162 885 2.443 2 0 0 0 
431 829 1.65151 2 0 0 0 
151 162 3.96067 2 0 0 0 
151 570 2.87781 2 0 0 0 
151 829 2.56214 2 0 0 0 
73 92 5.23934 2 0 0 0 
73 151 4.71215 2 0 0 0 
73 227 4.39461 2 0 0 0 
73 301 4.1567 2 0 0 0 
73 440 3.78056 2 0 0 0 
73 501 3.67374 2 0 0 0 
200 227 3.49452 2 0 0 0 
200 249 3.43712 2 0 0 0 
200 301 3.2566 2 0 0 0 
200 849 2.32687 2 0 0 0 
200 992 2.18211 2 0 0 0 
227 817 2.26315 2 0 0 0 
227 992 2.07289 2 0 0 0 
79 227 4.36704 2 0 0 0 
79 349 3.9669 2 0 0 0 
79 416 3.79793 2 0 0 0 
79 418 3.79214 2 0 0 0 
79 645 3.43365 2 0 0 0 
79 817 3.2449 2 0 0 0 
79 992 3.05464 2 0 0 0 
249 349 2.92776 2 0 0 0 
249 491 2.62819 2 0 0 0 
249 657 2.38155 2 0 0 0 
249 693 2.33654 2 0 0 0 
693 933 1.14058 2 0 0 0 
6 120 6.5856 2 0 0 0 
6 290 5.83659 2 0 0 0 
6 349 5.64996 2 0 0 0 
6 456 5.4124 2 0 0 0 
6 487 5.35801 2 0 0 0 
6 631 5.14011 2 0 0 0 
6 693 5.05873 2 0 0 0 
6 917 4.81547 2 0 0 0 
6 933 4.79675 2 0 0 0 
487 914 1.46229 2 0 0 0 
696 753 1.32818 2 0 0 0 
159 343 3.2775 2 0 0 0 
159 372 3.20661 2 0 0 0 
159 460 3.01514 2 0 0 0 
159 469 3.00005 2 0 0 0 
159 751 2.59681 2 0 0 0 
159 1012 2.32371 2 0 0 0 
293 343 2.78934 2 0 0 0 
293 469 2.51188 2 0 0 0 
343 372 2.55504 2 0 0 0 
343 443 2.38474 2 0 0 0 
216 412 2.86464 2 0 0 0 
216 460 2.78526 2 0 0 0 
216 518 2.67562 2 0 0 0 
216 751 2.36694 2 0 0 0 
216 958 2.14996 2 0 0 0 
460 734 1.70078 2 0 0 0 
518 958 1.35627 2 0 0 0 
734 958 1.06548 2 0 0 0 
123 216 3.94466 2 0 0 0 
123 440 3.2886 2 0 0 0 
123 518 3.15096 2 0 0 0 
123 984 2.59331 2 0 0 0 
123 994 2.58778 2 0 0 0 
791 984 0.981135 2 0 0 0 
63 224 4.52462 2 0 0 0 
63 251 4.4532 2 0 0 0 
63 301 4.27585 2 0 0 0 
63 440 3.89971 2 0 0 0 
63 637 3.59597 2 0 0 0 
63 791 3.41894 2 0 0 0 
63 984 3.20441 2 0 0 0 
224 849 2.22851 2 0 0 0 
224 895 2.18145 2 0 0 0 
224 1031 2.04531 2 0 0 0 
849 1031 0.8668 2 0 0 0 
64 224 4.5114 2 0 0 0 
64 267 4.37959 2 0 0 0 
64 277 4.3416 2 0 0 0 
64 344 4.11632 2 0 0 0 
64 491 3.80082 2 0 0 0 
64 543 3.7124 2 0 0 0 
64 657 3.55418 2 0 0 0 
64 1031 3.14969 2 0 0 0 
491 933 1.43223 2 0 0 0 
657 849 1.27128 2 0 0 0 
277 322 2.92625 2 0 0 0 
277 917 1.99173 2 0 0 0 
290 917 1.93716 2 0 0 0 
363 397 2.42821 2 0 0 0 
397 452 2.22782 2 0 0 0 
22 81 6.51644 2 0 0 0 
22 120 6.08817 2 0 0 0 
22 248 5.49634 2 0 0 0 
22 427 4.9627 2 0 0 0 
22 603 4.67866 2 0 0 0 
22 646 4.61856 2 0 0 0 
22 989 4.24187 2 0 0 0 
120 363 3.49083 2 0 0 0 
120 753 2.85859 2 0 0 0 
443 894 1.55334 2 0 0 0 
87 136 4.71318 2 0 0 0 
87 179 4.47684 2 0 0 0 
87 189 4.42984 2 0 0 0 
87 330 3.95936 2 0 0 0 
87 589 3.43084 2 0 0 0 
87 792 3.18661 2 0 0 0 
348 443 2.36648 2 0 0 0 
348 851 1.82035 2 0 0 0 
348 894 1.77629 2 0 0 0 
372 792 1.83989 2 0 0 0 
372 894 1.72365 2 0 0 0 
179 189 3.7291 2 0 0 0 
179 490 2.88118 2 0 0 0 
189 216 3.5757 2 0 0 0 
189 412 2.97103 2 0 0 0 
189 751 2.47332 2 0 0 0 
189 792 2.43886 2 0 0 0 
189 1012 2.20023 2 0 0 0 
181 412 2.99527 2 0 0 0 
181 463 2.90945 2 0 0 0 
181 748 2.50041 2 0 0 0 
181 791 2.46312 2 0 0 0 
251 463 2.67625 2 0 0 0 
251 748 2.26722 2 0 0 0 
251 1011 1.99145 2 0 0 0 
985 1011 0.742535 2 0 0 0 
267 637 2.34657 2 0 0 0 
267 895 2.04963 2 0 0 0 
335 344 2.66092 2 0 0 0 
335 804 1.93589 2 0 0 0 
344 543 2.21294 2 0 0 0 
344 561 2.19137 2 0 0 0 
543 561 1.78744 2 0 0 0 
543 739 1.55025 2 0 0 0 
282 290 3.00156 2 0 0 0 
282 322 2.91496 2 0 0 0 
282 452 2.58471 2 0 0 0 
282 486 2.5239 2 0 0 0 
282 663 2.25812 2 0 0 0 
322 739 2.03829 2 0 0 0 
361 448 2.32923 2 0 0 0 
361 452 2.3258 2 0 0 0 
361 603 2.08216 2 0 0 0 
448 519 2.00273 2 0 0 0 
486 504 1.96846 2 0 0 0 
486 519 1.93851 2 0 0 0 
519 1020 1.29011 2 0 0 0 
81 403 3.81413 2 0 0 0 
81 448 3.72212 2 0 0 0 
81 478 3.67231 2 0 0 0 
81 519 3.59343 2 0 0 0 
81 527 3.57727 2 0 0 0 
1060 1061 1.999 2 0 0 0 
1061 1062 1.999 2 0 0 0 
1062 1063 1.999 2 0 0 0 
136 348 3.4191 2 0 0 0 
136 775 2.73581 2 0 0 0 
136 1062 3.12389 2 0 0 0 
136 1063 3.12389 2 0 0 0 
966 1064 1.40336 2 0 0 0 
966 1065 1.40336 2 0 0 0 
1063 1064 1.999 2 0 0 0 
1064 1065 1.999 2 0 0 0 
330 589 2.21261 2 0 0 0 
589 966 1.24591 2 0 0 0 
1065 1066 1.999 2 0 0 0 
1066 1067 1.999 2 0 0 0 
1067 1068 1.999 2 0 0 0 
99 100 4.80798 2 0 0 0 
99 211 4.1688 2 0 0 0 
99 463 3.45246 2 0 0 0 
99 1069 3.40781 2 0 0 0 
99 1070 3.40781 2 0 0 0 
211 330 3.13106 2 0 0 0 
211 490 2.75363 2 0 0 0 
211 1067 2.76 2 0 0 0 
211 1068 2.76 2 0 0 0 
1068 1069 1.999 2 0 0 0 
1069 1070 1.999 2 0 0 0 
100 251 4.03177 2 0 0 0 
100 335 3.75217 2 0 0 0 
100 548 3.29198 2 0 0 0 
100 1011 2.75903 2 0 0 0 
1070 1071 1.999 2 0 0 0 
1071 1072 1.999 2 0 0 0 
1072 1073 1.999 2 0 0 0 
548 804 1.4757 2 0 0 0 
548 935 1.32637 2 0 0 0 
548 1073 1.8918 2 0 0 0 
605 804 1.40107 2 0 0 0 
605 935 1.25173 2 0 0 0 
605 1074 1.81717 2 0 0 0 
935 1073 1.43356 2 0 0 0 
935 1074 1.43356 2 0 0 0 
1073 1074 1.999 2 0 0 0 
1074 1075 1.999 2 0 0 0 
122 212 3.97626 2 0 0 0 
122 322 3.6128 2 0 0 0 
122 324 3.60943 2 0 0 0 
122 561 3.10319 2 0 0 0 
122 649 2.97303 2 0 0 0 
122 663 2.95596 2 0 0 0 
212 561 2.63892 2 0 0 0 
212 605 2.57366 2 0 0 0 
212 1075 2.75549 2 0 0 0 
649 1076 1.75227 2 0 0 0 
649 1077 1.75227 2 0 0 0 
1075 1076 1.999 2 0 0 0 
1076 1077 1.999 2 0 0 0 
1077 1078 1.999 2 0 0 0 
324 504 2.35616 2 0 0 0 
324 569 2.25698 2 0 0 0 
324 663 2.12487 2 0 0 0 
569 1079 1.86731 2 0 0 0 
569 1080 1.86731 2 0 0 0 
1078 1079 1.999 2 0 0 0 
1079 1080 1.999 2 0 0 0 
498 504 1.94622 2 0 0 0 
498 527 1.9001 2 0 0 0 
498 1080 1.97874 2 0 0 0 
498 1081 1.97874 2 0 0 0 
504 519 1.90401 2 0 0 0 
527 1020 1.27394 2 0 0 0 
1080 1081 1.999 2 0 0 0 
1081 1082 1.999 2 0 0 0 
1082 1083 1.999 2 0 0 0 
403 478 2.17362 2 0 0 0 
403 601 1.98029 2 0 0 0 
403 1083 2.15722 2 0 0 0 
478 526 1.94322 2 0 0 0 
478 601 1.83846 2 0 0 0 
1083 1084 1.999 2 0 0 0 
1084 1085 1.999 2 0 0 0 
41 264 4.76785 2 0 0 0 
41 306 4.62997 2 0 0 0 
41 392 4.36358 2 0 0 0 
41 499 4.16603 2 0 0 0 
41 1186 4.18674 2 0 0 0 
1186 1187 1.999 2 0 0 0 
1187 1188 1.999 2 0 0 0 
1188 1189 1.999 2 0 0 0 
530 852 1.44065 2 0 0 0 
692 1036 1.03636 2 0 0 0 
852 1191 1.52251 2 0 0 0 
1036 1189 1.33418 2 0 0 0 
1189 1190 1.999 2 0 0 0 
1190 1191 1.999 2 0 0 0 
432 640 1.87023 2 0 0 0 
432 1191 2.09893 2 0 0 0 
432 1192 2.09893 2 0 0 0 
1191 1192 1.999 2 0 0 0 
1192 1193 1.999 2 0 0 0 
1193 1194 1.999 2 0 0 0 
115 374 3.47055 2 0 0 0 
115 828 2.79364 2 0 0 0 
115 1194 3.24097 2 0 0 0 
115 1195 3.24097 2 0 0 0 
1194 1195 1.999 2 0 0 0 
1195 1196 1.999 2 0 0 0 
1196 1197 1.999 2 0 0 0 
1197 1198 1.999 2 0 0 0 
1198 1199 1.999 2 0 0 0 
405 493 2.13955 2 0 0 0 
405 544 2.05513 2 0 0 0 
405 555 2.03554 2 0 0 0 
405 805 1.73292 2 0 0 0 
544 655 1.65338 2 0 0 0 
544 680 1.6157 2 0 0 0 
544 1009 1.26731 2 0 0 0 
655 680 1.46033 2 0 0 0 
655 987 1.13131 2 0 0 0 
680 1199 1.71082 2 0 0 0 
680 1200 1.71082 2 0 0 0 
987 1201 1.3818 2 0 0 0 
1199 1200 1.999 2 0 0 0 
1200 1201 1.999 2 0 0 0 
288 555 2.36851 2 0 0 0 
288 805 2.06589 2 0 0 0 
288 834 2.02921 2 0 0 0 
288 1202 2.48323 2 0 0 0 
555 805 1.46695 2 0 0 0 
555 987 1.26708 2 0 0 0 
1201 1202 1.999 2 0 0 0 
1202 1203 1.999 2 0 0 0 
1203 1204 1.999 2 0 0 0 
198 395 2.98354 2 0 0 0 
198 725 2.47437 2 0 0 0 
198 1023 2.16395 2 0 0 0 
198 1206 2.81357 2 0 0 0 
461 745 1.68383 2 0 0 0 
461 886 1.53624 2 0 0 0 
461 1204 2.04596 2 0 0 0 
745 1205 1.63688 2 0 0 0 
1204 1205 1.999 2 0 0 0 
1205 1206 1.999 2 0 0 0 
173 664 2.63612 2 0 0 0 
173 961 2.30762 2 0 0 0 
173 1007 2.26758 2 0 0 0 
173 1208 2.90013 2 0 0 0 
664 1207 1.73499 2 0 0 0 
1206 1207 1.999 2 0 0 0 
1207 1208 1.999 2 0 0 0 
1208 1209 1.999 2 0 0 0 
145 173 3.93917 2 0 0 0 
145 326 3.41789 2 0 0 0 
145 858 2.55269 2 0 0 0 
145 1210 3.03804 2 0 0 0 
858 1209 1.51364 2 0 0 0 
1209 1210 1.999 2 0 0 0 
1210 1211 1.999 2 0 0 0 
1211 1212 1.999 2 0 0 0 
306 517 2.38562 2 0 0 0 
264 692 2.28228 2 0 0 0 
264 922 2.03499 2 0 0 0 
264 979 1.96838 2 0 0 0 
56 71 5.61469 2 0 0 0 
56 264 4.45179 2 0 0 0 
56 432 3.97061 2 0 0 0 
56 530 3.78881 2 0 0 0 
56 662 3.60998 2 0 0 0 
71 85 5.3411 2 0 0 0 
71 254 4.35957 2 0 0 0 
71 374 3.9726 2 0 0 0 
71 619 3.54575 2 0 0 0 
71 920 3.1996 2 0 0 0 
374 750 1.86149 2 0 0 0 
374 828 1.78125 2 0 0 0 
21 115 6.11247 2 0 0 0 
21 184 5.7291 2 0 0 0 
21 544 4.77537 2 0 0 0 
21 713 4.54705 2 0 0 0 
21 803 4.45464 2 0 0 0 
21 828 4.42316 2 0 0 0 
21 1009 4.23393 2 0 0 0 
21 1039 4.20227 2 0 0 0 
21 1197 4.8705 2 0 0 0 
21 1198 4.8705 2 0 0 0 
184 289 3.33854 2 0 0 0 
184 576 2.71767 2 0 0 0 
184 945 2.28648 2 0 0 0 
184 951 2.28089 2 0 0 0 
184 1039 2.18938 2 0 0 0 
576 797 1.45093 2 0 0 0 
803 945 1.01202 2 0 0 0 
289 359 2.74637 2 0 0 0 
289 493 2.46923 2 0 0 0 
289 797 2.07179 2 0 0 0 
289 951 1.90322 2 0 0 0 
493 805 1.57096 2 0 0 0 
493 834 1.53428 2 0 0 0 
493 951 1.41159 2 0 0 0 
97 288 3.91077 2 0 0 0 
97 359 3.69298 2 0 0 0 
97 461 3.4735 2 0 0 0 
97 834 2.97253 2 0 0 0 
395 1007 1.53643 2 0 0 0 
39 173 5.0932 2 0 0 0 
39 326 4.57191 2 0 0 0 
39 505 4.15009 2 0 0 0 
39 520 4.12487 2 0 0 0 
39 545 4.0943 2 0 0 0 
39 676 3.90884 2 0 0 0 
39 815 3.76383 2 0 0 0 
39 961 3.59956 2 0 0 0 
39 1007 3.55952 2 0 0 0 
39 1041 3.52186 2 0 0 0 
326 632 2.16135 2 0 0 0 
326 893 1.86425 2 0 0 0 
545 779 1.50783 2 0 0 0 
545 815 1.473 2 0 0 0 
31 262 4.93172 2 0 0 0 
31 421 4.45113 2 0 0 0 
31 517 4.28629 2 0 0 0 
31 541 4.25059 2 0 0 0 
31 553 4.22907 2 0 0 0 
31 560 4.2266 2 0 0 0 
31 579 4.20087 2 0 0 0 
31 612 4.15224 2 0 0 0 
31 711 4.02254 2 0 0 0 
262 579 2.44578 2 0 0 0 
262 662 2.32712 2 0 0 0 
421 579 1.9652 2 0 0 0 
421 711 1.78687 2 0 0 0 
85 91 5.13499 2 0 0 0 
85 177 4.4889 2 0 0 0 
85 214 4.3374 2 0 0 0 
85 331 3.96428 2 0 0 0 
85 400 3.75966 2 0 0 0 
85 920 3.05368 2 0 0 0 
619 662 1.54103 2 0 0 0 
254 495 2.60107 2 0 0 0 
240 254 3.27124 2 0 0 0 
240 713 2.33124 2 0 0 0 
379 495 2.20518 2 0 0 0 
379 960 1.62974 2 0 0 0 
36 93 5.73925 2 0 0 0 
36 164 5.16819 2 0 0 0 
36 240 4.87659 2 0 0 0 
36 379 4.44157 2 0 0 0 
36 576 4.08097 2 0 0 0 
36 713 3.89746 2 0 0 0 
36 803 3.80505 2 0 0 0 
36 945 3.64978 2 0 0 0 
36 1032 3.5621 2 0 0 0 
835 1032 0.88573 2 0 0 0 
93 164 4.46464 2 0 0 0 
93 310 3.95523 2 0 0 0 
93 1003 2.88726 2 0 0 0 
93 1032 2.85854 2 0 0 0 
310 359 2.70331 2 0 0 0 
310 464 2.48094 2 0 0 0 
310 866 1.94734 2 0 0 0 
310 965 1.84049 2 0 0 0 
310 1003 1.80678 2 0 0 0 
464 797 1.63492 2 0 0 0 
464 835 1.58859 2 0 0 0 
866 1003 0.87937 2 0 0 0 
35 72 5.96092 2 0 0 0 
35 89 5.81307 2 0 0 0 
35 97 5.68286 2 0 0 0 
35 359 4.52175 2 0 0 0 
35 520 4.18812 2 0 0 0 
35 529 4.17399 2 0 0 0 
35 774 3.86654 2 0 0 0 
35 931 3.69542 2 0 0 0 
35 965 3.65892 2 0 0 0 
520 774 1.54303 2 0 0 0 
520 931 1.37191 2 0 0 0 
520 1041 1.2616 2 0 0 0 
676 1041 1.04558 2 0 0 0 
259 505 2.55166 2 0 0 0 
259 676 2.31041 2 0 0 0 
259 728 2.25132 2 0 0 0 
279 447 2.59765 2 0 0 0 
279 701 2.22505 2 0 0 0 
279 703 2.22056 2 0 0 0 
279 728 2.18815 2 0 0 0 
279 904 2.00304 2 0 0 0 
447 505 2.02421 2 0 0 0 
447 779 1.67279 2 0 0 0 
505 815 1.52879 2 0 0 0 
728 904 1.12926 2 0 0 0 
174 541 2.80749 2 0 0 0 
174 560 2.78351 2 0 0 0 
174 720 2.56971 2 0 0 0 
419 436 2.20524 2 0 0 0 
419 560 2.00009 2 0 0 0 
560 612 1.69205 2 0 0 0 
213 541 2.65632 2 0 0 0 
213 567 2.62082 2 0 0 0 
213 711 2.42827 2 0 0 0 
213 720 2.41855 2 0 0 0 
541 720 1.5766 2 0 0 0 
214 400 2.90188 2 0 0 0 
214 567 2.6115 2 0 0 0 
214 1021 2.09214 2 0 0 0 
400 421 2.2698 2 0 0 0 
91 147 4.56252 2 0 0 0 
91 177 4.42871 2 0 0 0 
91 379 3.75757 2 0 0 0 
91 495 3.52241 2 0 0 0 
91 800 3.12367 2 0 0 0 
91 833 3.08437 2 0 0 0 
177 214 3.63112 2 0 0 0 
177 429 2.99256 2 0 0 0 
177 902 2.36436 2 0 0 0 
147 209 3.79336 2 0 0 0 
147 235 3.68731 2 0 0 0 
147 297 3.49467 2 0 0 0 
147 802 2.6094 2 0 0 0 
323 833 1.93849 2 0 0 0 
323 960 1.80109 2 0 0 0 
833 960 0.95654 2 0 0 0 
164 297 3.41635 2 0 0 0 
164 323 3.33831 2 0 0 0 
89 93 5.0751 2 0 0 0 
89 312 3.9807 2 0 0 0 
89 866 3.06722 2 0 0 0 
312 938 1.85552 2 0 0 0 
72 89 5.26236 2 0 0 0 
72 259 4.29924 2 0 0 0 
72 774 3.31582 2 0 0 0 
291 312 2.90082 2 0 0 0 
291 712 2.15643 2 0 0 0 
291 865 1.9875 2 0 0 0 
15 72 6.72111 2 0 0 0 
15 112 6.32854 2 0 0 0 
15 124 6.22563 2 0 0 0 
15 291 5.49336 2 0 0 0 
15 357 5.28536 2 0 0 0 
15 380 5.22682 2 0 0 0 
15 701 4.71009 2 0 0 0 
15 712 4.69506 2 0 0 0 
15 780 4.62101 2 0 0 0 
15 904 4.48808 2 0 0 0 
15 1035 4.35173 2 0 0 0 
701 780 1.29909 2 0 0 0 
318 762 2.0243 2 0 0 0 
166 174 3.82637 2 0 0 0 
166 425 3.02962 2 0 0 0 
166 720 2.59548 2 0 0 0 
166 887 2.41513 2 0 0 0 
887 975 0.88191 2 0 0 0 
54 166 4.86373 2 0 0 0 
54 429 4.03891 2 0 0 0 
54 494 3.92287 2 0 0 0 
54 567 3.80935 2 0 0 0 
54 807 3.51465 2 0 0 0 
54 902 3.41071 2 0 0 0 
54 975 3.33051 2 0 0 0 
54 1021 3.28999 2 0 0 0 
235 429 2.76344 2 0 0 0 
235 854 2.18218 2 0 0 0 
373 423 2.33539 2 0 0 0 
373 802 1.81406 2 0 0 0 
423 494 2.09082 2 0 0 0 
423 854 1.6256 2 0 0 0 
429 854 1.62124 2 0 0 0 
429 902 1.57429 2 0 0 0 
209 373 2.99802 2 0 0 0 
209 414 2.89489 2 0 0 0 
209 580 2.62543 2 0 0 0 
209 802 2.35252 2 0 0 0 
104 164 4.31909 2 0 0 0 
104 297 3.84186 2 0 0 0 
104 414 3.49896 2 0 0 0 
104 554 3.25739 2 0 0 0 
414 554 2.01173 2 0 0 0 
57 80 5.53295 2 0 0 0 
57 89 5.42276 2 0 0 0 
57 104 5.23782 2 0 0 0 
57 938 3.29758 2 0 0 0 
57 1037 3.19988 2 0 0 0 
80 83 5.27724 2 0 0 0 
80 104 5.03975 2 0 0 0 
80 287 4.15221 2 0 0 0 
168 312 3.34817 2 0 0 0 
168 865 2.43486 2 0 0 0 
168 938 2.35679 2 0 0 0 
112 168 4.23726 2 0 0 0 
112 485 3.31647 2 0 0 0 
112 675 3.02964 2 0 0 0 
112 712 2.99159 2 0 0 0 
112 1035 2.64827 2 0 0 0 
712 865 1.1892 2 0 0 0 
357 380 2.48017 2 0 0 0 
357 686 1.97483 2 0 0 0 
380 450 2.27468 2 0 0 0 
380 695 1.91 2 0 0 0 
255 318 3.01424 2 0 0 0 
255 410 2.75571 2 0 0 0 
410 878 1.64166 2 0 0 0 
126 255 3.80776 2 0 0 0 
126 425 3.29736 2 0 0 0 
126 667 2.92455 2 0 0 0 
126 807 2.77079 2 0 0 0 
126 1008 2.5588 2 0 0 0 
667 755 1.35854 2 0 0 0 
46 53 6.07928 2 0 0 0 
46 54 6.04677 2 0 0 0 
46 126 5.30291 2 0 0 0 
46 697 3.80585 2 0 0 0 
46 807 3.6861 2 0 0 0 
53 373 4.19995 2 0 0 0 
53 423 4.07579 2 0 0 0 
53 580 3.82736 2 0 0 0 
53 787 3.57098 2 0 0 0 
32 53 6.28726 2 0 0 0 
32 83 5.92688 2 0 0 0 
32 287 4.80187 2 0 0 0 
32 375 4.54469 2 0 0 0 
32 787 3.91789 2 0 0 0 
32 827 3.87009 2 0 0 0 
287 554 2.36986 2 0 0 0 
287 827 2.03777 2 0 0 0 
83 217 4.34429 2 0 0 0 
83 581 3.46454 2 0 0 0 
83 1013 2.96837 2 0 0 0 
581 1045 1.17808 2 0 0 0 
27 80 6.32201 2 0 0 0 
27 112 5.9671 2 0 0 0 
27 168 5.57928 2 0 0 0 
27 408 4.8017 2 0 0 0 
27 485 4.6585 2 0 0 0 
27 581 4.50931 2 0 0 0 
27 673 4.37716 2 0 0 0 
27 769 4.27135 2 0 0 0 
27 1045 3.97789 2 0 0 0 
450 695 1.76304 2 0 0 0 
450 816 1.63468 2 0 0 0 
686 695 1.40466 2 0 0 0 
9 22 8.11878 2 0 0 0 
9 58 7.10757 2 0 0 0 
9 120 6.48689 2 0 0 0 
9 186 6.11276 2 0 0 0 
9 255 5.87272 2 0 0 0 
9 410 5.40049 2 0 0 0 
9 630 5.04169 2 0 0 0 
9 636 5.03423 2 0 0 0 
9 717 4.93045 2 0 0 0 
9 753 4.88919 2 0 0 0 
9 755 4.88654 2 0 0 0 
58 143 4.924 2 0 0 0 
58 667 3.57957 2 0 0 0 
58 697 3.54557 2 0 0 0 
58 717 3.52053 2 0 0 0 
131 697 2.85472 2 0 0 0 
131 737 2.80611 2 0 0 0 
7 32 7.62232 2 0 0 0 
7 121 6.52785 2 0 0 0 
7 131 6.46321 2 0 0 0 
7 690 5.00816 2 0 0 0 
7 737 4.95335 2 0 0 0 
7 787 4.90603 2 0 0 0 
7 881 4.80197 2 0 0 0 
375 690 1.93053 2 0 0 0 
217 375 2.9621 2 0 0 0 
217 578 2.59278 2 0 0 0 
11 68 6.98868 2 0 0 0 
11 83 6.84101 2 0 0 0 
11 193 6.05877 2 0 0 0 
11 202 6.03026 2 0 0 0 
11 350 5.52083 2 0 0 0 
11 513 5.1757 2 0 0 0 
11 581 5.08597 2 0 0 0 
11 647 4.98941 2 0 0 0 
11 769 4.848 2 0 0 0 
11 824 4.79209 2 0 0 0 
11 955 4.64933 2 0 0 0 
11 1045 4.55455 2 0 0 0 
955 1013 0.776685 2 0 0 0 
408 1055 1.45321 2 0 0 0 
193 408 2.97468 2 0 0 0 
193 635 2.60371 2 0 0 0 
193 781 2.43145 2 0 0 0 
193 824 2.38842 2 0 0 0 
193 840 2.36864 2 0 0 0 
193 1055 2.13363 2 0 0 0 
19 48 6.93104 2 0 0 0 
19 193 5.71644 2 0 0 0 
19 220 5.60868 2 0 0 0 
19 467 4.92736 2 0 0 0 
19 485 4.89283 2 0 0 0 
19 675 4.606 2 0 0 0 
19 686 4.59438 2 0 0 0 
630 646 1.54147 2 0 0 0 
630 1042 1.11013 2 0 0 0 
646 989 1.14037 2 0 0 0 
143 248 3.71149 2 0 0 0 
143 630 2.85811 2 0 0 0 
143 717 2.74688 2 0 0 0 
143 841 2.61262 2 0 0 0 
143 1042 2.40237 2 0 0 0 
248 528 2.55633 2 0 0 0 
248 841 2.17376 2 0 0 0 
248 989 2.01815 2 0 0 0 
8 131 6.44666 2 0 0 0 
8 143 6.36385 2 0 0 0 
8 525 5.21617 2 0 0 0 
8 528 5.2087 2 0 0 0 
8 677 5.00432 2 0 0 0 
8 733 4.93921 2 0 0 0 
8 737 4.9368 2 0 0 0 
8 841 4.82613 2 0 0 0 
121 154 4.21511 2 0 0 0 
121 194 4.04837 2 0 0 0 
121 761 2.84697 2 0 0 0 
121 881 2.71937 2 0 0 0 
194 202 3.62478 2 0 0 0 
194 690 2.52867 2 0 0 0 
202 578 2.65732 2 0 0 0 
350 513 2.23408 2 0 0 0 
513 635 1.72065 2 0 0 0 
172 298 3.37654 2 0 0 0 
172 765 2.52943 2 0 0 0 
172 778 2.51376 2 0 0 0 
172 781 2.51094 2 0 0 0 
238 350 2.94497 2 0 0 0 
238 377 2.87692 2 0 0 0 
238 513 2.59985 2 0 0 0 
238 778 2.26209 2 0 0 0 
238 874 2.16226 2 0 0 0 
298 321 2.86277 2 0 0 0 
298 1029 1.81322 2 0 0 0 
298 1050 1.78058 2 0 0 0 
635 778 1.38289 2 0 0 0 
635 824 1.33704 2 0 0 0 
48 95 5.49209 2 0 0 0 
48 172 4.94918 2 0 0 0 
48 535 3.953 2 0 0 0 
48 565 3.91429 2 0 0 0 
48 634 3.82058 2 0 0 0 
48 892 3.52771 2 0 0 0 
427 444 2.17414 2 0 0 0 
427 478 2.11856 2 0 0 0 
129 243 3.81248 2 0 0 0 
129 528 3.09086 2 0 0 0 
129 618 2.97318 2 0 0 0 
129 1027 2.51805 2 0 0 0 
415 950 1.5497 2 0 0 0 
677 687 1.42089 2 0 0 0 
687 733 1.35578 2 0 0 0 
210 426 2.86991 2 0 0 0 
210 525 2.69426 2 0 0 0 
210 588 2.61028 2 0 0 0 
210 677 2.4824 2 0 0 0 
210 687 2.47201 2 0 0 0 
525 677 1.64313 2 0 0 0 
55 121 5.14377 2 0 0 0 
55 210 4.6879 2 0 0 0 
55 237 4.5774 2 0 0 0 
55 761 3.54548 2 0 0 0 
55 819 3.48955 2 0 0 0 
55 880 3.41852 2 0 0 0 
55 1004 3.29042 2 0 0 0 
538 1004 1.27927 2 0 0 0 
154 360 3.25751 2 0 0 0 
154 459 3.04509 2 0 0 0 
154 538 2.90247 2 0 0 0 
154 761 2.61683 2 0 0 0 
360 378 2.48549 2 0 0 0 
459 506 2.00974 2 0 0 0 
459 1028 1.39716 2 0 0 0 
68 202 4.5565 2 0 0 0 
68 342 4.08413 2 0 0 0 
68 346 4.05221 2 0 0 0 
68 360 4.02248 2 0 0 0 
68 381 3.95877 2 0 0 0 
68 647 3.51565 2 0 0 0 
68 921 3.21337 2 0 0 0 
378 381 2.42178 2 0 0 0 
378 459 2.27307 2 0 0 0 
378 506 2.1776 2 0 0 0 
381 437 2.28957 2 0 0 0 
381 921 1.65722 2 0 0 0 
300 377 2.67827 2 0 0 0 
300 740 2.10179 2 0 0 0 
342 921 1.78259 2 0 0 0 
346 740 1.93981 2 0 0 0 
740 874 1.15196 2 0 0 0 
321 377 2.61481 2 0 0 0 
95 178 4.33861 2 0 0 0 
95 967 2.85135 2 0 0 0 
178 268 3.45995 2 0 0 0 
178 321 3.28193 2 0 0 0 
364 444 2.33378 2 0 0 0 
364 526 2.18962 2 0 0 0 
364 618 2.06465 2 0 0 0 
364 1086 2.2618 2 0 0 0 
526 601 1.74988 2 0 0 0 
618 683 1.50957 2 0 0 0 
618 1027 1.14956 2 0 0 0 
683 1027 1.05445 2 0 0 0 
1085 1086 1.999 2 0 0 0 
1086 1087 1.999 2 0 0 0 
1087 1088 1.999 2 0 0 0 
243 415 2.76817 2 0 0 0 
243 623 2.442 2 0 0 0 
243 683 2.34886 2 0 0 0 
243 1088 2.64113 2 0 0 0 
623 1089 1.79987 2 0 0 0 
623 1090 1.79987 2 0 0 0 
1088 1089 1.999 2 0 0 0 
1089 1090 1.999 2 0 0 0 
138 415 3.24005 2 0 0 0 
138 426 3.21666 2 0 0 0 
138 623 2.91389 2 0 0 0 
138 687 2.81876 2 0 0 0 
138 733 2.76405 2 0 0 0 
138 1091 3.11301 2 0 0 0 
426 607 1.9196 2 0 0 0 
426 1092 2.10265 2 0 0 0 
1090 1091 1.999 2 0 0 0 
1091 1092 1.999 2 0 0 0 
1092 1093 1.999 2 0 0 0 
588 607 1.65996 2 0 0 0 
607 1093 1.81595 2 0 0 0 
1093 1094 1.999 2 0 0 0 
1094 1095 1.999 2 0 0 0 
237 305 3.10132 2 0 0 0 
237 588 2.49978 2 0 0 0 
237 1095 2.65577 2 0 0 0 
305 446 2.5118 2 0 0 0 
305 538 2.35504 2 0 0 0 
305 798 2.03503 2 0 0 0 
305 880 1.94244 2 0 0 0 
305 956 1.8625 2 0 0 0 
798 1097 1.58947 2 0 0 0 
956 1097 1.41694 2 0 0 0 
1095 1096 1.999 2 0 0 0 
1096 1097 1.999 2 0 0 0 
1097 1098 1.999 2 0 0 0 
446 459 2.11935 2 0 0 0 
446 521 1.99575 2 0 0 0 
446 1028 1.4113 2 0 0 0 
506 659 1.70046 2 0 0 0 
506 1028 1.3017 2 0 0 0 
521 798 1.51897 2 0 0 0 
659 1099 1.74283 2 0 0 0 
1098 1099 1.999 2 0 0 0 
1099 1100 1.999 2 0 0 0 
308 437 2.52868 2 0 0 0 
308 729 2.09575 2 0 0 0 
308 788 2.04094 2 0 0 0 
437 482 2.09804 2 0 0 0 
437 669 1.81724 2 0 0 0 
482 659 1.75311 2 0 0 0 
482 1100 2.00928 2 0 0 0 
669 788 1.32949 2 0 0 0 
669 1101 1.72847 2 0 0 0 
669 1102 1.72847 2 0 0 0 
788 1102 1.60001 2 0 0 0 
1100 1101 1.999 2 0 0 0 
1101 1102 1.999 2 0 0 0 
1102 1103 1.999 2 0 0 0 
183 300 3.31507 2 0 0 0 
183 308 3.29876 2 0 0 0 
183 342 3.18501 2 0 0 0 
183 644 2.61923 2 0 0 0 
183 1022 2.20972 2 0 0 0 
183 1054 2.16487 2 0 0 0 
604 644 1.57899 2 0 0 0 
604 1054 1.12464 2 0 0 0 
604 1105 1.81761 2 0 0 0 
644 1104 1.76039 2 0 0 0 
1103 1104 1.999 2 0 0 0 
1104 1105 1.999 2 0 0 0 
70 178 4.63614 2 0 0 0 
70 183 4.60581 2 0 0 0 
70 321 4.14073 2 0 0 0 
70 1106 3.74697 2 0 0 0 
1105 1106 1.999 2 0 0 0 
1106 1107 1.999 2 0 0 0 
1107 1108 1.999 2 0 0 0 
268 275 3.109 2 0 0 0 
268 897 2.04888 2 0 0 0 
268 976 1.96345 2 0 0 0 
268 1109 2.57077 2 0 0 0 
897 1110 1.47711 2 0 0 0 
976 1108 1.39168 2 0 0 0 
1108 1109 1.999 2 0 0 0 
1109 1110 1.999 2 0 0 0 
1110 1111 1.999 2 0 0 0 
140 145 4.13765 2 0 0 0 
140 263 3.68008 2 0 0 0 
140 1212 3.09861 2 0 0 0 
140 1213 3.09861 2 0 0 0 
1212 1213 1.999 2 0 0 0 
1213 1214 1.999 2 0 0 0 
222 1215 2.71549 2 0 0 0 
1214 1215 1.999 2 0 0 0 
1215 1216 1.999 2 0 0 0 
1216 1217 1.999 2 0 0 0 
82 222 4.36397 2 0 0 0 
82 302 4.10112 2 0 0 0 
82 532 3.56362 2 0 0 0 
82 573 3.51328 2 0 0 0 
82 857 3.16234 2 0 0 0 
82 1217 3.64749 2 0 0 0 
1217 1218 1.999 2 0 0 0 
1218 1219 1.999 2 0 0 0 
394 661 1.90959 2 0 0 0 
394 846 1.69782 2 0 0 0 
394 857 1.68497 2 0 0 0 
394 1219 2.17012 2 0 0 0 
488 547 1.89139 2 0 0 0 
488 661 1.73347 2 0 0 0 
661 1220 1.73848 2 0 0 0 
1219 1220 1.999 2 0 0 0 
1220 1221 1.999 2 0 0 0 
1221 1222 1.999 2 0 0 0 
270 547 2.45068 2 0 0 0 
270 999 1.92907 2 0 0 0 
547 1001 1.26856 2 0 0 0 
999 1222 1.37479 2 0 0 0 
999 1223 1.37479 2 0 0 0 
1001 1221 1.37115 2 0 0 0 
1001 1222 1.37115 2 0 0 0 
1222 1223 1.999 2 0 0 0 
1223 1224 1.999 2 0 0 0 
813 1224 1.57391 2 0 0 0 
1224 1225 1.999 2 0 0 0 
1225 1226 1.999 2 0 0 0 
1226 1227 1.999 2 0 0 0 
389 572 2.04661 2 0 0 0 
768 1226 1.6164 2 0 0 0 
768 1227 1.6164 2 0 0 0 
1227 1228 1.999 2 0 0 0 
1228 1229 1.999 2 0 0 0 
345 389 2.47981 2 0 0 0 
345 1230 2.29818 2 0 0 0 
1229 1230 1.999 2 0 0 0 
1230 1231 1.999 2 0 0 0 
1231 1232 1.999 2 0 0 0 
155 157 3.97135 2 0 0 0 
155 608 2.80686 2 0 0 0 
155 706 2.67344 2 0 0 0 
155 808 2.56692 2 0 0 0 
706 957 1.10043 2 0 0 0 
706 1233 1.68251 2 0 0 0 
808 1231 1.576 2 0 0 0 
808 1232 1.576 2 0 0 0 
957 1233 1.41692 2 0 0 0 
957 1234 1.41692 2 0 0 0 
1232 1233 1.999 2 0 0 0 
1233 1234 1.999 2 0 0 0 
399 582 2.01555 2 0 0 0 
399 957 1.58201 2 0 0 0 
1234 1235 1.999 2 0 0 0 
1235 1236 1.999 2 0 0 0 
1236 1237 1.999 2 0 0 0 