ITEM: TIMESTEP
0
ITEM: NUMBER OF ATOMS
1111
ITEM: BOX BOUNDS pp pp pp
-10099.9 10099.9
-2700 2700
-100 100
ITEM: ATOMS id radius mass 
903 47.4 6.08914e+08 
705 68.665 1.85109e+09 
942 43.1075 4.58015e+08 
67 275.839 1.20001e+11 
550 89.058 4.03869e+09 
176 189.226 3.87404e+10 
252 163.007 2.47651e+10 
783 60.279 1.25233e+09 
910 46.3445 5.69136e+08 
983 38.4085 3.23969e+08 
215 173.913 3.00761e+10 
825 55.7685 9.91718e+08 
125 219.609 6.05584e+10 
231 168.276 2.72451e+10 
391 117.959 9.38445e+09 
764 62.3175 1.38373e+09 
1024 35.014 2.45441e+08 
1051 31.099 1.71973e+08 
314 142.072 1.63963e+10 
466 104.05 6.44091e+09 
575 86.0185 3.63912e+09 
583 84.9735 3.5081e+09 
392 117.634 9.30722e+09 
499 97.879 5.36154e+09 
1015 35.5555 2.57005e+08 
549 89.4145 4.08738e+09 
30 348.436 2.41875e+11 
352 128.37 1.20952e+10 
358 126.702 1.16298e+10 
716 67.1935 1.73461e+09 
242 164.221 2.53225e+10 
367 124.694 1.10856e+10 
658 74.495 2.36376e+09 
52 297.246 1.50165e+11 
946 42.653 4.4368e+08 
973 39.6725 3.57018e+08 
1046 32.281 1.92337e+08 
1057 30.285 1.5882e+08 
94 246.707 8.5855e+10 
747 63.6395 1.47367e+09 
868 50.9055 7.5425e+08 
299 145.908 1.77606e+10 
413 112.844 8.21582e+09 
480 101.192 5.9247e+09 
1052 30.8415 1.67737e+08 
135 213.037 5.52827e+10 
246 163.811 2.51334e+10 
500 97.5495 5.30758e+09 
665 73.214 2.2439e+09 
681 70.977 2.04444e+09 
196 182.071 3.45096e+10 
265 157.819 2.24748e+10 
508 95.264 4.94319e+09 
760 62.445 1.39224e+09 
754 63.001 1.42976e+09 
20 388.192 3.34474e+11 
407 114.746 8.63853e+09 
382 120.096 9.90391e+09 
386 119.168 9.67598e+09 
396 116.875 9.12822e+09 
794 59.5045 1.20468e+09 
86 259.512 9.99289e+10 
160 195.369 4.26375e+10 
516 94.3165 4.79716e+09 
651 75.049 2.41689e+09 
351 128.641 1.21719e+10 
477 101.676 6.01003e+09 
842 53.525 8.76781e+08 
69 275.594 1.19683e+11 
16 400.988 3.68651e+11 
523 92.8575 4.57796e+09 
303 145.131 1.74784e+10 
317 140.792 1.59571e+10 
13 417.075 4.14825e+11 
714 67.544 1.7619e+09 
633 78.0415 2.71768e+09 
823 56.1445 1.01191e+09 
107 233.98 7.32415e+10 
896 47.7835 6.23814e+08 
531 91.566 4.38959e+09 
592 83.5305 3.3324e+09 
900 47.623 6.17549e+08 
24 378.156 3.09196e+11 
204 179.099 3.28474e+10 
285 149.306 1.90308e+10 
924 45.1675 5.26865e+08 
1005 36.9215 2.87779e+08 
313 142.078 1.63986e+10 
436 108.835 7.37111e+09 
441 107.724 7.14747e+09 
1026 34.745 2.39827e+08 
191 183.395 3.52682e+10 
465 104.329 6.49277e+09 
674 72.0695 2.14031e+09 
898 47.664 6.19145e+08 
75 268.792 1.11038e+11 
165 192.71 4.09202e+10 
142 209.059 5.22426e+10 
327 137.934 1.50048e+10 
28 357.96 2.62256e+11 
879 49.894 7.10176e+08 
233 166.95 2.66061e+10 
393 117.576 9.29358e+09 
671 72.569 2.18512e+09 
23 379.774 3.13182e+11 
627 79.518 2.87487e+09 
668 72.9245 2.21739e+09 
845 52.721 8.37861e+08 
295 147.077 1.8191e+10 
333 136.264 1.44667e+10 
653 74.998 2.41196e+09 
891 48.693 6.60117e+08 
948 42.541 4.40194e+08 
269 155.708 2.15851e+10 
890 48.7015 6.60463e+08 
4 453.065 5.31746e+11 
1010 36.0945 2.68871e+08 
50 299.87 1.54178e+11 
260 158.981 2.29749e+10 
337 134.833 1.40157e+10 
599 82.9685 3.26558e+09 
911 46.263 5.66138e+08 
919 45.6345 5.43377e+08 
311 142.448 1.65269e+10 
643 76.1785 2.52766e+09 
811 57.468 1.08517e+09 
133 214.055 5.6079e+10 
281 152.294 2.01964e+10 
570 86.7615 3.73424e+09 
836 54.318 9.16331e+08 
877 50.101 7.19052e+08 
92 253.738 9.34067e+10 
453 105.722 6.75634e+09 
501 97.178 5.24717e+09 
722 66.298 1.66618e+09 
915 45.98 5.55812e+08 
383 120.07 9.89748e+09 
558 88.385 3.94782e+09 
606 81.6925 3.11722e+09 
609 81.3955 3.08335e+09 
645 75.9265 2.50266e+09 
742 64.3725 1.52518e+09 
817 57.0505 1.06169e+09 
1053 30.6735 1.6501e+08 
329 137.139 1.47472e+10 
416 112.355 8.10947e+09 
418 111.775 7.98464e+09 
685 70.567 2.00921e+09 
715 67.3695 1.74828e+09 
334 135.591 1.42534e+10 
456 105.496 6.7131e+09 
37 319.927 1.87229e+11 
457 105.43 6.7007e+09 
914 46.1725 5.62822e+08 
186 185.401 3.64382e+10 
636 77.5485 2.6665e+09 
878 49.9915 7.14348e+08 
150 201.341 4.66679e+10 
433 109.716 7.55136e+09 
471 103.329 6.30795e+09 
625 79.859 2.91201e+09 
953 42.067 4.25643e+08 
162 195.048 4.2427e+10 
431 109.956 7.60113e+09 
885 49.253 6.83155e+08 
151 201.019 4.64443e+10 
829 55.1945 9.6141e+08 
73 270.196 1.12787e+11 
200 180.186 3.34494e+10 
227 169.265 2.77283e+10 
301 145.474 1.76026e+10 
992 38.0245 3.14349e+08 
79 267.439 1.09369e+11 
249 163.526 2.50024e+10 
349 129.25 1.23458e+10 
693 70.128 1.97195e+09 
6 435.745 4.73062e+11 
631 78.2665 2.74125e+09 
487 100.056 5.72731e+09 
696 69.774 1.94224e+09 
753 63.0445 1.43273e+09 
1017 35.526 2.56366e+08 
159 196.453 4.33511e+10 
293 147.637 1.83997e+10 
343 131.297 1.29414e+10 
469 103.551 6.34869e+09 
1012 35.918 2.64946e+08 
216 173.465 2.98442e+10 
412 112.998 8.24961e+09 
460 105.061 6.6304e+09 
518 94.096 4.76359e+09 
734 65.0175 1.57149e+09 
751 63.228 1.44527e+09 
958 41.5305 4.09565e+08 
123 221 6.1716e+10 
791 59.783 1.22167e+09 
984 38.3305 3.21999e+08 
994 37.778 3.08275e+08 
63 282.111 1.28375e+11 
440 107.86 7.17468e+09 
224 170.351 2.82657e+10 
849 52.5 8.27369e+08 
895 47.7935 6.24206e+08 
1031 34.18 2.28317e+08 
64 280.789 1.26579e+11 
491 99.2925 5.5972e+09 
657 74.6285 2.37649e+09 
818 56.9075 1.05373e+09 
933 43.93 4.84736e+08 
277 153.371 2.06277e+10 
290 147.914 1.85033e+10 
917 45.802 5.49382e+08 
363 126.268 1.15107e+10 
397 116.553 9.05298e+09 
22 386.003 3.28847e+11 
120 222.815 6.32487e+10 
443 107.177 7.03924e+09 
775 61.142 1.30689e+09 
851 52.5635 8.30375e+08 
87 258.879 9.92e+10 
348 129.471 1.24091e+10 
372 124.207 1.09563e+10 
792 59.7815 1.22158e+09 
894 48.1575 6.38577e+08 
179 188.805 3.84827e+10 
189 184.105 3.56791e+10 
181 186.529 3.71074e+10 
463 104.416 6.50912e+09 
490 99.313 5.60066e+09 
974 39.366 3.48807e+08 
251 163.209 2.48575e+10 
748 63.5125 1.46487e+09 
985 38.318 3.21684e+08 
1011 35.9355 2.65334e+08 
267 157.17 2.21988e+10 
335 135.249 1.41457e+10 
637 77.4865 2.66011e+09 
344 130.844 1.28079e+10 
543 90.4505 4.23111e+09 
561 88.293 3.9355e+09 
739 64.5745 1.53959e+09 
282 152.242 2.01755e+10 
322 139.254 1.54399e+10 
663 73.57 2.27679e+09 
361 126.352 1.15337e+10 
448 106.57 6.92042e+09 
452 106.228 6.854e+09 
486 100.148 5.74312e+09 
519 93.7025 4.70408e+09 
81 265.641 1.07178e+11 
603 81.8635 3.13684e+09 
136 212.439 5.48181e+10 
966 40.386 3.76629e+08 
330 137.056 1.47204e+10 
589 84.205 3.41378e+09 
99 240.831 7.98649e+10 
211 176.05 3.11982e+10 
100 239.968 7.90094e+10 
1030 34.1905 2.28527e+08 
548 89.2305 4.0622e+09 
605 81.7675 3.12582e+09 
804 58.3395 1.1353e+09 
935 43.406 4.67596e+08 
122 222.026 6.258e+10 
212 175.599 3.0959e+10 
649 75.277 2.43898e+09 
324 138.917 1.53281e+10 
569 86.7815 3.73682e+09 
498 97.9235 5.36886e+09 
504 96.6985 5.16988e+09 
527 92.086 4.4648e+09 
1020 35.3085 2.51686e+08 
403 115.772 8.87221e+09 
478 101.59 5.9947e+09 
601 82.2565 3.18223e+09 
41 318.724 1.85125e+11 
530 91.7635 4.41806e+09 
692 70.1675 1.97528e+09 
852 52.301 8.17996e+08 
1036 33.468 2.14344e+08 
432 109.943 7.59843e+09 
640 77.08 2.61846e+09 
115 224.147 6.43902e+10 
405 115.076 8.71316e+09 
544 90.4375 4.22928e+09 
655 74.9005 2.40257e+09 
680 71.132 2.05786e+09 
987 38.2305 3.19486e+08 
1009 36.2935 2.73343e+08 
288 148.373 1.86759e+10 
555 88.478 3.96029e+09 
805 58.2165 1.12813e+09 
198 181.407 3.41337e+10 
461 104.645 6.55214e+09 
745 63.738 1.48053e+09 
886 48.978 6.71776e+08 
1023 34.9875 2.44884e+08 
173 190.063 3.92567e+10 
664 73.549 2.27484e+09 
145 203.854 4.84372e+10 
858 51.4145 7.77102e+08 
306 144.273 1.71702e+10 
922 45.4375 5.3637e+08 
264 158.061 2.25785e+10 
662 73.88 2.3057e+09 
757 62.643 1.40553e+09 
979 38.777 3.33383e+08 
56 287.118 1.35333e+11 
71 274.351 1.18071e+11 
374 122.908 1.0616e+10 
750 63.241 1.44616e+09 
828 55.2165 9.6256e+08 
21 387.099 3.31657e+11 
713 67.606 1.76676e+09 
184 185.81 3.66799e+10 
576 85.957 3.63132e+09 
803 58.3645 1.13676e+09 
945 42.8375 4.49463e+08 
1039 33.128 2.07877e+08 
289 148.043 1.85519e+10 
359 126.594 1.15999e+10 
493 98.8795 5.52764e+09 
797 59.1355 1.1824e+09 
834 54.548 9.28021e+08 
951 42.279 4.32111e+08 
97 242.704 8.17438e+10 
725 66.03 1.64606e+09 
395 116.947 9.1451e+09 
529 91.8175 4.42586e+09 
931 43.96 4.85729e+08 
1007 36.6955 2.82527e+08 
39 319.257 1.86055e+11 
326 137.935 1.50051e+10 
545 90.173 4.19229e+09 
961 40.6995 3.85468e+08 
31 334.34 2.13691e+11 
517 94.289 4.79297e+09 
553 88.5665 3.97219e+09 
262 158.832 2.29105e+10 
421 110.773 7.77183e+09 
579 85.7465 3.60471e+09 
85 259.759 1.00215e+11 
331 136.668 1.45958e+10 
619 80.223 2.95201e+09 
254 161.606 2.4132e+10 
800 58.627 1.15216e+09 
920 45.6085 5.42449e+08 
240 165.518 2.59273e+10 
379 122.017 1.03868e+10 
495 98.501 5.46441e+09 
36 322.14 1.91142e+11 
835 54.5035 9.25752e+08 
1032 34.0695 2.26109e+08 
93 251.785 9.12664e+10 
310 143.738 1.69798e+10 
464 104.356 6.49791e+09 
866 50.9965 7.58302e+08 
1003 36.9405 2.88224e+08 
35 325.582 1.97333e+11 
965 40.311 3.74535e+08 
520 93.2305 4.63335e+09 
676 71.628 2.10121e+09 
774 61.072 1.30241e+09 
1041 32.9295 2.04163e+08 
259 159.413 2.31631e+10 
279 153.096 2.05172e+10 
447 106.668 6.93953e+09 
505 95.7525 5.01963e+09 
728 65.718 1.62283e+09 
779 60.61 1.27308e+09 
815 57.1265 1.06594e+09 
174 190.03 3.92363e+10 
419 111.689 7.96612e+09 
560 88.3205 3.93918e+09 
612 80.884 3.02558e+09 
213 174.913 3.05976e+10 
541 90.7185 4.26883e+09 
567 87.169 3.78711e+09 
711 67.914 1.79101e+09 
720 66.9415 1.71517e+09 
214 173.981 3.01111e+10 
400 116.207 8.9726e+09 
1021 35.2325 2.50064e+08 
91 253.74 9.34089e+10 
177 189.131 3.86824e+10 
147 202.512 4.74869e+10 
297 146.956 1.81459e+10 
323 139.152 1.5406e+10 
833 54.697 9.35646e+08 
960 40.957 3.92831e+08 
164 194.679 4.2187e+10 
89 255.725 9.56183e+10 
312 142.345 1.6491e+10 
72 270.51 1.13181e+11 
291 147.737 1.84368e+10 
15 401.6 3.70341e+11 
701 69.4085 1.91187e+09 
904 47.208 6.01545e+08 
318 140.028 1.56988e+10 
762 62.402 1.38937e+09 
166 192.607 4.0854e+10 
425 110.356 7.68438e+09 
887 48.9065 6.68838e+08 
975 39.2845 3.46645e+08 
54 293.766 1.44953e+11 
902 47.3045 6.05241e+08 
235 166.219 2.62581e+10 
373 122.978 1.0634e+10 
423 110.561 7.72739e+09 
429 110.124 7.63613e+09 
494 98.521 5.46774e+09 
854 51.999 8.03908e+08 
209 176.824 3.16115e+10 
802 58.4285 1.1405e+09 
104 237.231 7.63366e+10 
414 112.665 8.17689e+09 
554 88.5085 3.96439e+09 
57 286.551 1.34533e+11 
80 266.744 1.08519e+11 
673 72.259 2.15723e+09 
168 192.472 4.07684e+10 
938 43.207 4.61194e+08 
1037 33.4365 2.13739e+08 
112 231.254 7.07109e+10 
712 67.906 1.79038e+09 
865 51.0135 7.59061e+08 
1035 33.573 2.16367e+08 
357 126.936 1.16942e+10 
380 121.082 1.01497e+10 
255 161.397 2.40383e+10 
410 114.174 8.50987e+09 
755 62.7785 1.41467e+09 
126 219.38 6.03688e+10 
667 73.075 2.23114e+09 
807 57.699 1.09831e+09 
1008 36.5 2.78035e+08 
46 310.911 1.71842e+11 
53 297.017 1.49819e+11 
814 57.383 1.08037e+09 
32 331.709 2.08686e+11 
580 85.7185 3.60118e+09 
787 60.0805 1.24e+09 
287 148.477 1.87156e+10 
827 55.3 9.66934e+08 
83 260.979 1.01634e+11 
581 85.475 3.57058e+09 
1045 32.333 1.93268e+08 
27 365.457 2.7908e+11 
485 100.394 5.78546e+09 
675 71.7105 2.10848e+09 
450 106.386 6.88454e+09 
686 70.548 2.00759e+09 
695 69.918 1.95429e+09 
9 425.875 4.41639e+11 
1042 32.7195 2.00282e+08 
58 284.882 1.32196e+11 
717 67.17 1.7328e+09 
131 215.798 5.74601e+10 
697 69.674 1.9339e+09 
7 430.522 4.56256e+11 
375 122.76 1.05777e+10 
690 70.293 1.9859e+09 
217 173.45 2.9836e+10 
578 85.828 3.615e+09 
1013 35.858 2.63621e+08 
11 423.122 4.3313e+11 
955 41.8105 4.17905e+08 
408 114.713 8.63107e+09 
769 61.678 1.34157e+09 
193 182.755 3.49e+10 
781 60.3905 1.25929e+09 
840 54.109 9.05795e+08 
1055 30.608 1.63956e+08 
19 388.889 3.36279e+11 
892 48.556 6.54561e+08 
630 78.2935 2.74409e+09 
646 75.853 2.4954e+09 
989 38.184 3.18321e+08 
143 207.518 5.10958e+10 
248 163.631 2.50508e+10 
841 53.745 8.87637e+08 
8 428.868 4.51015e+11 
737 64.8125 1.55667e+09 
514 94.3415 4.80098e+09 
819 56.8415 1.05007e+09 
121 222.262 6.27798e+10 
881 49.675 7.00866e+08 
194 182.574 3.47967e+10 
202 179.904 3.32923e+10 
350 128.96 1.22628e+10 
513 94.448 4.81725e+09 
647 75.819 2.49204e+09 
824 56.087 1.00881e+09 
874 50.689 7.44668e+08 
172 190.703 3.96549e+10 
238 165.537 2.59362e+10 
298 146.951 1.81441e+10 
635 77.6165 2.67352e+09 
778 60.6725 1.27702e+09 
1029 34.3715 2.32176e+08 
48 304.215 1.60977e+11 
765 62.24 1.37857e+09 
1050 31.107 1.72106e+08 
427 110.267 7.66581e+09 
444 107.147 7.03334e+09 
129 217.084 5.84931e+10 
415 112.653 8.17428e+09 
528 92.002 4.45259e+09 
950 42.317 4.33277e+08 
677 71.564 2.09558e+09 
687 70.5245 2.00559e+09 
733 65.0535 1.5741e+09 
210 176.677 3.15324e+10 
525 92.749 4.56193e+09 
55 292.114 1.42521e+11 
538 90.9985 4.30848e+09 
761 62.4345 1.39154e+09 
880 49.7385 7.03557e+08 
1004 36.9285 2.87943e+08 
154 199.249 4.52279e+10 
360 126.502 1.15749e+10 
459 105.26 6.66824e+09 
68 275.746 1.19881e+11 
378 122.047 1.03945e+10 
381 120.131 9.91258e+09 
921 45.5915 5.41842e+08 
300 145.673 1.76748e+10 
342 132.667 1.33509e+10 
346 129.475 1.24102e+10 
740 64.5065 1.53473e+09 
321 139.326 1.54639e+10 
377 122.154 1.0422e+10 
95 244.994 8.40795e+10 
178 188.867 3.85203e+10 
364 126.231 1.15004e+10 
526 92.732 4.55943e+09 
618 80.2345 2.95328e+09 
683 70.723 2.02257e+09 
1027 34.7215 2.39341e+08 
243 164.163 2.5296e+10 
623 80.037 2.93153e+09 
138 211.351 5.39805e+10 
426 110.315 7.67582e+09 
588 84.3515 3.43162e+09 
607 81.645 3.11179e+09 
237 165.626 2.59783e+10 
305 144.506 1.72534e+10 
798 58.997 1.17412e+09 
956 41.744 4.15914e+08 
446 106.674 6.9407e+09 
506 95.7135 5.0135e+09 
521 92.9005 4.58433e+09 
659 74.333 2.34837e+09 
1028 34.456 2.33892e+08 
308 144.042 1.70881e+10 
437 108.826 7.36918e+09 
482 100.978 5.8871e+09 
669 72.8975 2.21493e+09 
788 60.051 1.23817e+09 
183 185.834 3.66941e+10 
604 81.811 3.13081e+09 
644 76.0885 2.51871e+09 
729 65.533 1.60917e+09 
1022 35.1375 2.48047e+08 
1054 30.653 1.6468e+08 
70 274.748 1.18583e+11 
268 157.127 2.21808e+10 
897 47.761 6.22933e+08 
976 39.2175 3.44874e+08 
140 209.911 5.28839e+10 
222 171.599 2.88909e+10 
977 39.2015 3.44452e+08 
82 264.799 1.06162e+11 
394 117.061 9.17199e+09 
488 99.449 5.6237e+09 
661 73.898 2.30738e+09 
846 52.721 8.37861e+08 
857 51.435 7.78032e+08 
270 155.377 2.14479e+10 
547 89.6905 4.12535e+09 
999 37.529 3.02219e+08 
1001 37.165 2.93511e+08 
813 57.441 1.08365e+09 
389 118.113 9.42138e+09 
624 80.0035 2.92785e+09 
768 61.69 1.34235e+09 
345 129.868 1.25236e+10 
155 199.043 4.50881e+10 
706 68.301 1.82181e+09 
808 57.6495 1.09549e+09 
957 41.742 4.15854e+08 
399 116.459 9.0311e+09 
582 85.096 3.52329e+09 
263 158.097 2.25939e+10 
278 153.281 2.05914e+10 
632 78.201 2.73438e+09 
767 61.6965 1.34277e+09 
844 52.7245 8.38028e+08 
893 48.49 6.51895e+08 
187 185.022 3.62152e+10 
709 68.056 1.80227e+09 
1016 35.5045 2.55901e+08 
1043 32.698 1.99887e+08 
302 145.312 1.75441e+10 
573 86.529 3.7043e+09 
1000 37.11 2.92209e+08 
98 242.262 8.1297e+10 
532 91.563 4.38916e+09 
875 50.462 7.34708e+08 
354 127.822 1.19409e+10 
704 68.7875 1.86101e+09 
943 42.99 4.5428e+08 
2 485.11 6.52741e+11 
572 86.548 3.70674e+09 
1059 30.043 1.55043e+08 
3 473.292 6.0619e+11 
608 81.643 3.11156e+09 
759 62.448 1.39244e+09 
981 38.5585 3.27779e+08 
157 198.093 4.44453e+10 
230 168.298 2.72555e+10 
587 84.363 3.43303e+09 
369 124.605 1.10617e+10 
438 108.531 7.30931e+09 
522 92.8745 4.58048e+09 
703 68.959 1.87497e+09 
810 57.566 1.09074e+09 
315 141.767 1.62908e+10 
472 103.21 6.28618e+09 
479 101.528 5.98391e+09 
691 70.171 1.97558e+09 
934 43.598 4.73828e+08 
5 444.411 5.01854e+11 
368 124.681 1.10821e+10 
109 233.843 7.3113e+10 
266 157.704 2.24259e+10 
428 110.162 7.64383e+09 
577 85.9345 3.62847e+09 
616 80.511 2.98392e+09 
286 149.186 1.8985e+10 
435 108.951 7.3945e+09 
848 52.6 8.32106e+08 
38 319.447 1.86388e+11 
474 102.854 6.22135e+09 
552 88.849 4.01032e+09 
723 66.2655 1.66373e+09 
566 87.1695 3.78717e+09 
832 54.7205 9.36853e+08 
25 374.226 2.99656e+11 
470 103.368 6.315e+09 
170 191.475 4.01378e+10 
475 102.275 6.11697e+09 
702 69.2035 1.89498e+09 
780 60.5005 1.26619e+09 
882 49.54 6.95167e+08 
926 44.9165 5.1813e+08 
62 282.328 1.28672e+11 
103 237.257 7.63627e+10 
455 105.547 6.72294e+09 
90 254.237 9.39588e+10 
201 180.003 3.33473e+10 
534 91.1165 4.32526e+09 
870 50.816 7.50279e+08 
571 86.6545 3.72044e+09 
44 315.335 1.79282e+11 
341 132.902 1.3422e+10 
481 101.189 5.924e+09 
203 179.573 3.31089e+10 
221 171.845 2.90159e+10 
420 111.035 7.8271e+09 
247 163.738 2.51e+10 
536 91.0605 4.31729e+09 
925 45.081 5.23844e+08 
132 215.644 5.73372e+10 
206 178.28 3.23988e+10 
422 110.68 7.75227e+09 
622 80.0995 2.9384e+09 
629 78.603 2.77676e+09 
296 146.956 1.81459e+10 
492 98.8925 5.52982e+09 
628 78.7955 2.79721e+09 
785 60.1755 1.24589e+09 
884 49.2905 6.84717e+08 
276 153.494 2.06776e+10 
970 39.859 3.62077e+08 
124 220.963 6.16851e+10 
568 86.8105 3.74057e+09 
816 57.082 1.06345e+09 
404 115.219 8.74557e+09 
484 100.507 5.80511e+09 
507 95.7115 5.01318e+09 
610 81.1555 3.05615e+09 
730 65.4915 1.60611e+09 
949 42.4845 4.38443e+08 
84 259.985 1.00476e+11 
476 102.166 6.09734e+09 
542 90.6625 4.26093e+09 
744 63.991 1.49823e+09 
294 147.549 1.83668e+10 
430 110.064 7.62365e+09 
784 60.1855 1.24651e+09 
856 51.5255 7.82146e+08 
962 40.663 3.84432e+08 
101 239.91 7.89521e+10 
731 65.247 1.58819e+09 
867 50.9395 7.55762e+08 
190 183.725 3.54587e+10 
205 178.518 3.2529e+10 
385 119.79 9.82853e+09 
40 319.064 1.85718e+11 
232 167.51 2.68745e+10 
557 88.4235 3.95298e+09 
596 83.231 3.29668e+09 
119 223.018 6.34222e+10 
234 166.48 2.63817e+10 
454 105.654 6.7434e+09 
598 83.191 3.29193e+09 
777 60.6805 1.27752e+09 
831 55.063 9.54555e+08 
699 69.457 1.91588e+09 
1047 31.8555 1.84831e+08 
10 423.558 4.3447e+11 
964 40.393 3.76825e+08 
88 257.091 9.71582e+10 
220 171.978 2.90833e+10 
679 71.154 2.05977e+09 
916 45.823 5.50138e+08 
1025 34.8285 2.4156e+08 
76 268.774 1.11015e+11 
812 57.4675 1.08515e+09 
901 47.474 6.11771e+08 
959 41.323 4.03457e+08 
356 127.306 1.1797e+10 
641 76.6955 2.57947e+09 
726 65.927 1.63837e+09 
839 54.2035 9.10549e+08 
29 353.883 2.53396e+11 
909 46.3895 5.70795e+08 
1038 33.37 2.12466e+08 
328 137.207 1.4769e+10 
551 88.958 4.0251e+09 
585 84.6325 3.46603e+09 
758 62.4625 1.39341e+09 
982 38.4975 3.26226e+08 
1049 31.699 1.8212e+08 
130 216.435 5.79697e+10 
512 94.844 4.8781e+09 
473 103.1 6.26619e+09 
515 94.336 4.80014e+09 
782 60.2825 1.25255e+09 
152 200.732 4.62457e+10 
502 96.95 5.21032e+09 
899 47.645 6.18405e+08 
175 190.019 3.92295e+10 
271 155.296 2.14142e+10 
719 66.97 1.71736e+09 
789 59.9955 1.23475e+09 
864 51.162 7.65709e+08 
111 231.389 7.08357e+10 
793 59.511 1.20507e+09 
188 184.957 3.61771e+10 
467 103.847 6.4032e+09 
535 91.085 4.32078e+09 
565 87.214 3.79297e+09 
682 70.935 2.04081e+09 
47 307.283 1.65896e+11 
366 125.597 1.13282e+10 
439 107.987 7.20005e+09 
591 83.757 3.35958e+09 
283 151.838 2.00153e+10 
511 94.898 4.88644e+09 
936 43.31 4.645e+08 
258 159.951 2.33982e+10 
654 74.9925 2.41143e+09 
12 421.689 4.28744e+11 
799 58.7455 1.15916e+09 
442 107.671 7.13713e+09 
749 63.244 1.44637e+09 
996 37.649 3.05128e+08 
127 218.833 5.99187e+10 
339 133.298 1.35423e+10 
503 96.915 5.20468e+09 
741 64.5025 1.53444e+09 
51 299.245 1.53215e+11 
837 54.2575 9.13273e+08 
918 45.7405 5.47172e+08 
284 150.603 1.95309e+10 
790 59.9955 1.23475e+09 
280 152.423 2.02474e+10 
537 91.03 4.31295e+09 
806 57.8145 1.10492e+09 
65 278.91 1.24055e+11 
634 77.8425 2.69694e+09 
906 47.0985 5.97369e+08 
1 485.332 6.53639e+11 
61 282.379 1.28741e+11 
371 124.487 1.10306e+10 
402 116.083 8.9439e+09 
110 233.363 7.26641e+10 
451 106.254 6.85885e+09 
821 56.27 1.01871e+09 
872 50.7855 7.48929e+08 
34 328.173 2.02083e+11 
434 109.424 7.49133e+09 
795 59.361 1.19598e+09 
796 59.1945 1.18595e+09 
850 52.4815 8.26495e+08 
1034 33.662 2.18093e+08 
256 161.162 2.39337e+10 
638 77.2285 2.63363e+09 
972 39.673 3.57031e+08 
156 198.938 4.50164e+10 
304 145.119 1.74741e+10 
365 125.936 1.14201e+10 
406 115.056 8.70861e+09 
615 80.6285 2.997e+09 
161 195.25 4.25593e+10 
163 194.853 4.23002e+10 
940 43.1605 4.59707e+08 
401 116.163 8.96241e+09 
524 92.8045 4.57013e+09 
809 57.594 1.09233e+09 
967 40.1405 3.69802e+08 
353 127.877 1.19563e+10 
546 89.871 4.1503e+09 
556 88.4375 3.95486e+09 
613 80.849 3.02166e+09 
698 69.5965 1.92745e+09 
228 168.873 2.75361e+10 
108 233.913 7.31786e+10 
861 51.334 7.73458e+08 
937 43.2115 4.61338e+08 
968 39.9625 3.64904e+08 
185 185.783 3.66639e+10 
574 86.065 3.64503e+09 
66 277.283 1.21896e+11 
128 218.401 5.95646e+10 
195 182.456 3.4729e+10 
540 90.912 4.2962e+09 
96 244.494 8.35653e+10 
509 94.9995 4.90213e+09 
192 182.956 3.50156e+10 
424 110.486 7.71147e+09 
1019 35.352 2.52617e+08 
180 186.559 3.71253e+10 
611 80.967 3.03491e+09 
672 72.5475 2.18318e+09 
820 56.7925 1.04736e+09 
862 51.2565 7.6996e+08 
253 161.739 2.41919e+10 
275 153.772 2.07899e+10 
105 234.326 7.35669e+10 
332 136.332 1.4488e+10 
370 124.561 1.105e+10 
873 50.726 7.46299e+08 
445 107.131 7.03018e+09 
694 69.9305 1.95533e+09 
876 50.122 7.19957e+08 
927 44.785 5.13593e+08 
1056 30.4315 1.61136e+08 
320 139.56 1.55419e+10 
590 83.7785 3.36216e+09 
626 79.79 2.90447e+09 
319 139.719 1.55951e+10 
700 69.44 1.91448e+09 
118 223.354 6.37092e+10 
376 122.334 1.0468e+10 
153 199.626 4.54858e+10 
770 61.648 1.33961e+09 
939 43.1665 4.59898e+08 
1040 32.9315 2.042e+08 
144 204.886 4.91766e+10 
134 213.809 5.58851e+10 
272 154.065 2.0909e+10 
390 118.069 9.41085e+09 
860 51.3675 7.74973e+08 
912 46.2425 5.65386e+08 
923 45.3465 5.33154e+08 
928 44.7305 5.1172e+08 
1058 30.2785 1.58717e+08 
411 114.165 8.50786e+09 
847 52.6265 8.33364e+08 
853 52.148 8.10838e+08 
60 284.35 1.31456e+11 
773 61.3915 1.32296e+09 
930 44.133 4.91487e+08 
614 80.8405 3.0207e+09 
1014 35.7285 2.60775e+08 
1312 99.691 5.66486e+09 
1313 99.691 5.66486e+09 
1337 99.691 5.66486e+09 
1338 99.691 5.66486e+09 
18 389.755 3.38528e+11 
229 168.559 2.73828e+10 
387 119.12 9.66429e+09 
539 90.9135 4.29642e+09 
772 61.411 1.32422e+09 
843 53.1385 8.57925e+08 
863 51.1805 7.6654e+08 
167 192.544 4.08145e+10 
197 181.696 3.42974e+10 
838 54.2295 9.1186e+08 
952 42.172 4.28839e+08 
274 153.798 2.08005e+10 
458 105.27 6.67014e+09 
763 62.392 1.3887e+09 
26 365.854 2.79993e+11 
562 88.2 3.92308e+09 
1048 31.805 1.83953e+08 
593 83.358 3.31179e+09 
1314 99.691 5.66486e+09 
1315 99.691 5.66486e+09 
1339 99.691 5.66486e+09 
1340 99.691 5.66486e+09 
236 166.201 2.62496e+10 
417 112.085 8.05115e+09 
325 138.673 1.52476e+10 
340 132.989 1.34483e+10 
586 84.6125 3.46358e+09 
642 76.391 2.54887e+09 
735 65.001 1.5703e+09 
913 46.2405 5.65313e+08 
199 181.362 3.4108e+10 
244 164.137 2.52835e+10 
489 99.3145 5.60092e+09 
990 38.054 3.15081e+08 
113 228.854 6.85325e+10 
510 94.966 4.89695e+09 
932 43.9495 4.85381e+08 
102 239.422 7.84718e+10 
169 192.231 4.06152e+10 
689 70.3435 1.99018e+09 
786 60.1165 1.24223e+09 
859 51.388 7.75901e+08 
869 50.8665 7.52518e+08 
595 83.2855 3.30316e+09 
707 68.2685 1.81921e+09 
1316 99.691 5.66486e+09 
1317 99.691 5.66486e+09 
1318 99.691 5.66486e+09 
1341 99.691 5.66486e+09 
1342 99.691 5.66486e+09 
1343 99.691 5.66486e+09 
117 223.971 6.42391e+10 
584 84.669 3.47052e+09 
718 67.1 1.72738e+09 
963 40.6485 3.84021e+08 
59 284.738 1.31995e+11 
219 172.633 2.94169e+10 
594 83.3255 3.30792e+09 
766 61.9365 1.3585e+09 
991 38.0275 3.14423e+08 
316 140.893 1.59915e+10 
468 103.802 6.39488e+09 
684 70.587 2.01092e+09 
871 50.811 7.50057e+08 
239 165.523 2.59296e+10 
309 143.744 1.69822e+10 
149 201.873 4.70388e+10 
384 119.918 9.86007e+09 
830 55.1345 9.58278e+08 
1018 35.433 2.54358e+08 
998 37.4455 3.00207e+08 
1319 99.691 5.66486e+09 
1320 99.691 5.66486e+09 
1321 99.691 5.66486e+09 
1344 99.691 5.66486e+09 
1345 99.691 5.66486e+09 
1346 99.691 5.66486e+09 
1362 10 5.7177e+06 
114 225.361 6.54421e+10 
621 80.1365 2.94247e+09 
756 62.674 1.40761e+09 
883 49.346 6.87032e+08 
207 177.413 3.19287e+10 
600 82.5735 3.21917e+09 
724 66.213 1.65978e+09 
409 114.201 8.51591e+09 
801 58.469 1.14287e+09 
14 409.415 3.92385e+11 
77 268.173 1.10272e+11 
106 234.207 7.34549e+10 
398 116.504 9.04157e+09 
738 64.6325 1.54374e+09 
889 48.748 6.62356e+08 
1322 99.691 5.66486e+09 
1323 99.691 5.66486e+09 
1347 99.691 5.66486e+09 
1348 99.691 5.66486e+09 
141 209.184 5.23367e+10 
997 37.5435 3.0257e+08 
74 269.791 1.1228e+11 
241 164.291 2.53549e+10 
907 46.588 5.78154e+08 
969 39.8735 3.62472e+08 
171 190.874 3.97614e+10 
218 173.336 2.97775e+10 
226 170.042 2.81119e+10 
307 144.15 1.71265e+10 
678 71.498 2.08979e+09 
362 126.306 1.15211e+10 
388 118.353 9.47904e+09 
462 104.521 6.52878e+09 
563 87.696 3.85621e+09 
752 63.1075 1.43702e+09 
944 42.839 4.4951e+08 
336 134.857 1.4023e+10 
338 134.081 1.37823e+10 
483 100.86 5.86649e+09 
602 81.9825 3.15054e+09 
660 74.2175 2.33744e+09 
1324 99.691 5.66486e+09 
1325 99.691 5.66486e+09 
1326 99.691 5.66486e+09 
1349 99.691 5.66486e+09 
1350 99.691 5.66486e+09 
1351 99.691 5.66486e+09 
17 399.253 3.63886e+11 
223 170.583 2.83811e+10 
257 160.565 2.36689e+10 
888 48.781 6.63702e+08 
905 47.131 5.98606e+08 
355 127.695 1.19055e+10 
688 70.393 1.99439e+09 
947 42.5745 4.41235e+08 
139 210.645 5.34414e+10 
292 147.679 1.84151e+10 
670 72.8345 2.20919e+09 
822 56.1765 1.01364e+09 
1044 32.541 1.97022e+08 
137 212.117 5.45688e+10 
158 196.587 4.34393e+10 
225 170.25 2.82149e+10 
855 51.679 7.89157e+08 
1327 99.691 5.66486e+09 
1328 99.691 5.66486e+09 
1329 99.691 5.66486e+09 
1352 99.691 5.66486e+09 
1353 99.691 5.66486e+09 
1354 99.691 5.66486e+09 
1363 10 5.7177e+06 
78 267.881 1.09912e+11 
559 88.375 3.94648e+09 
617 80.31 2.96163e+09 
988 38.189 3.18446e+08 
273 154.06 2.0907e+10 
721 66.609 1.68974e+09 
986 38.262 3.20276e+08 
45 313.983 1.76986e+11 
656 74.671 2.38055e+09 
666 73.1415 2.23724e+09 
708 68.2325 1.81633e+09 
42 316.551 1.81365e+11 
771 61.5245 1.33157e+09 
49 302.853 1.58823e+11 
993 37.957 3.12678e+08 
245 164.01 2.52248e+10 
736 64.988 1.56935e+09 
1330 99.691 5.66486e+09 
1331 99.691 5.66486e+09 
1332 99.691 5.66486e+09 
1355 99.691 5.66486e+09 
1356 99.691 5.66486e+09 
1357 99.691 5.66486e+09 
33 329.849 2.05196e+11 
148 201.974 4.71091e+10 
496 98.5 5.46424e+09 
746 63.7285 1.47987e+09 
908 46.458 5.73328e+08 
980 38.657 3.30298e+08 
116 223.981 6.42469e+10 
564 87.4435 3.823e+09 
1006 36.913 2.8758e+08 
146 203.042 4.78607e+10 
497 98.015 5.38392e+09 
597 83.22 3.29537e+09 
743 64.16 1.51013e+09 
1002 37.0545 2.909e+08 
182 186.04 3.6816e+10 
639 77.191 2.62979e+09 
650 75.227 2.43412e+09 
727 65.769 1.62662e+09 
776 60.8935 1.29102e+09 
954 41.867 4.19601e+08 
1333 99.691 5.66486e+09 
1334 99.691 5.66486e+09 
1358 99.691 5.66486e+09 
1359 99.691 5.66486e+09 
261 158.846 2.29166e+10 
652 75.047 2.41669e+09 
710 68.038 1.80084e+09 
449 106.541 6.91477e+09 
732 65.184 1.5836e+09 
971 39.791 3.60227e+08 
43 316.088 1.8057e+11 
620 80.1965 2.94909e+09 
826 55.468 9.75773e+08 
208 176.975 3.16923e+10 
648 75.508 2.4615e+09 
941 43.1095 4.58079e+08 
1033 33.848 2.21728e+08 
250 163.352 2.49229e+10 
347 129.473 1.24096e+10 
533 91.224 4.34059e+09 
929 44.392 5.0019e+08 
978 38.7785 3.33422e+08 
995 37.8105 3.09071e+08 
1335 99.691 5.66486e+09 
1336 99.691 5.66486e+09 
1360 99.691 5.66486e+09 
1361 99.691 5.66486e+09 
