ITEM: TIMESTEP
0
ITEM: NUMBER OF ENTRIES
107
ITEM: BOX BOUNDS pp pp pp
-10099.9 10099.9
-2700 2700
-100 100
ITEM: ENTRIES c_4a[1] c_4a[2] c_4a[3] c_4a[4] c_4a[5] 
1161 1060 1 0 0.0104141 
1162 1061 1 0 0.0104141 
1163 1062 1 0 0.0104141 
1164 1063 1 0 0.0104141 
1165 1064 1 0 0.0104141 
1166 1065 1 0 0.0104141 
1167 1066 1 0 0.0104141 
1168 1067 1 0 0.0104141 
1169 1068 1 0 0.0104141 
1170 1069 1 0 0.0104141 
1171 1070 1 0 0.0104141 
1172 1071 1 0 0.0104141 
1173 1072 1 0 0.0104141 
1174 1073 1 0 0.0104141 
1175 1074 1 0 0.0104141 
1176 1075 1 0 0.0104141 
1177 1076 1 0 0.0104141 
1178 1077 1 0 0.0104141 
1024 1181 0 -3.53338e+06 3.21971e+06 
1179 1078 1 0 0.0104141 
1180 1079 1 0 0.0104141 
1181 1080 1 0 0.0104141 
1182 1081 1 0 0.0104141 
1183 1082 1 0 0.0104141 
1184 1083 1 0 0.0104141 
1185 1084 1 0 0.0104141 
851 1284 0 4.77424e+07 -2.42275e+07 
966 1064 0 3.74502e+07 -3.70907e+07 
1186 1085 1 0 0.0104141 
1187 1086 1 0 0.0104141 
1188 1087 1 0 0.0104141 
1189 1088 1 0 0.0104141 
1190 1089 1 0 0.0104141 
1191 1090 1 0 0.0104141 
1192 1091 1 0 0.0104141 
1193 1092 1 0 0.0104141 
1194 1093 1 0 0.0104141 
1195 1094 1 0 0.0104141 
1196 1095 1 0 0.0104141 
1197 1096 1 0 0.0104141 
1198 1097 1 0 0.0104141 
1199 1098 1 0 0.0104141 
1200 1099 1 0 0.0104141 
1201 1100 1 0 0.0104141 
1202 1101 1 0 0.0104141 
1203 1102 1 0 0.0104141 
1204 1103 1 0 0.0104141 
1205 1104 1 0 0.0104141 
1206 1105 1 0 0.0104141 
1207 1106 1 0 0.0104141 
1208 1107 1 0 0.0104141 
1209 1108 1 0 0.0104141 
1210 1109 1 0 0.0104141 
1211 1110 1 0 0.0104141 
1212 1111 1 0 0.0104141 
1213 1112 1 0 0.0104141 
1214 1113 1 0 0.0104141 
1215 1114 1 0 0.0104141 
1216 1115 1 0 0.0104141 
1217 1116 1 0 0.0104141 
1218 1117 1 0 0.0104141 
1219 1118 1 0 0.0104141 
1220 1119 1 0 0.0104141 
1221 1120 1 0 0.0104141 
1222 1121 1 0 0.0104141 
1223 1122 1 0 0.0104141 
1224 1123 1 0 0.0104141 
1225 1124 1 0 0.0104141 
1226 1125 1 0 0.0104141 
1227 1126 1 0 0.0104141 
1228 1127 1 0 0.0104141 
1229 1128 1 0 0.0104141 
1230 1129 1 0 0.0104141 
1231 1130 1 0 0.0104141 
1232 1131 1 0 0.0104141 
1233 1132 1 0 0.0104141 
1234 1133 1 0 0.0104141 
1235 1134 1 0 0.0104141 
1236 1135 1 0 0.0104141 
1237 1136 1 0 0.0104141 
1238 1137 1 0 0.0104141 
1239 1138 1 0 0.0104141 
1240 1139 1 0 0.0104141 
1241 1140 1 0 0.0104141 
1242 1141 1 0 0.0104141 
1243 1142 1 0 0.0104141 
1244 1143 1 0 0.0104141 
1245 1144 1 0 0.0104141 
1246 1145 1 0 0.0104141 
1247 1146 1 0 0.0104141 
1248 1147 1 0 0.0104141 
1249 1148 1 0 0.0104141 
1250 1149 1 0 0.0104141 
1251 1150 1 0 0.0104141 
1252 1151 1 0 0.0104141 
1253 1152 1 0 0.0104141 
1254 1153 1 0 0.0104141 
1255 1154 1 0 0.0104141 
1256 1155 1 0 0.0104141 
1257 1156 1 0 0.0104141 
1258 1157 1 0 0.0104141 
1259 1158 1 0 0.0104141 
1260 1159 1 0 0.0104141 
1261 1160 1 0 0.0104141 
995 1149 0 5.69908e+10 -4.67672e+10 
995 1150 0 -1.41688e+11 -1.25028e+11 
995 1336 0 8.22372e+10 1.66425e+11 
