LIGGGHTS (Version LIGGGHTS-PUBLIC 3.1.0, compiled 2016-05-16-13:26:05 by yuxing, git commit  based on LAMMPS 23 Nov 2013)
  orthogonal box = (-13530.8 -6765.41 -0.5) to (13530.8 6765.41 0.5)
  1 by 1 by 1 MPI processor grid
  1600 atoms
Memory usage per processor = 6.16655 Mbytes
Time kerot KinEng Pxx Pyy Pxy Lx Ly 
           0            0            0            0            0            0    27061.662     13530.83 
          30            0     15169128    -90.00888   -112.93704     24.12391    26994.481    13476.406 
          60            0     33347779   -169.55463   -218.27346    26.287103    26927.301    13421.983 
          90            0     42258099   -198.66291   -284.60027    45.595519     26860.12    13367.559 
         120            0     59204406   -255.07909   -410.82404    70.615938     26792.94    13313.136 
         150            0 1.3105442e+08   -387.76095   -685.65933    73.570052    26725.759    13258.712 
         180            0 2.6875505e+08   -558.69867   -1071.7096    73.568861    26658.579    13204.289 
         210            0 4.673897e+08   -759.60979   -1480.2493    71.119348    26591.398    13149.865 
         240            0 5.7975843e+08   -851.53437   -1646.1421    49.019399    26524.218    13095.441 
         270            0 6.544809e+08   -900.88924   -1842.4307    53.875776    26457.037    13041.018 
         300            0 7.3757141e+08   -1110.4018   -2148.5225    41.043555    26389.857    12986.594 
         330            0 8.1503715e+08   -1251.7381   -2337.7823    109.06538    26322.676    12932.171 
         360            0 1.1455156e+09   -1434.0222   -2758.0605    43.972711    26255.496    12877.747 
         390            0 1.2372304e+09   -1521.2886   -3111.2582    17.068856    26188.315    12823.323 
         420            0 1.2615169e+09   -1603.4512   -3215.5766    17.370802    26121.135      12768.9 
         450            0 1.3092598e+09   -1659.9187   -3545.7991   -26.908235    26053.954    12714.476 
         480            0 1.3283721e+09    -1714.572    -3690.788   -42.334602    25986.774    12660.053 
         510            0 1.3637591e+09   -1853.7565   -3983.3163    12.477708    25919.593    12605.629 
         540            0 1.5478113e+09   -2105.0149   -4551.4426   -2.1225595    25852.413    12551.206 
         570            0 1.6920826e+09   -2296.1518   -4821.4619   -10.221406    25785.232    12496.782 
         600            0 1.8393415e+09   -2482.2071   -5262.1805   -23.936517    25718.052    12442.358 
         630            0 1.9266484e+09   -2639.1287   -5631.4026    13.346456    25650.871    12387.935 
         660            0 2.1282662e+09   -2866.0844   -6178.4136     150.3529    25583.691    12333.511 
         690            0 2.2710186e+09   -3261.1085   -6485.7422    104.61939     25516.51    12279.088 
         720            0 2.5023467e+09   -3621.5889    -7034.327    136.59256     25449.33    12224.664 
         750            0 2.7042607e+09   -3886.9178   -7446.7979    168.82652    25382.149     12170.24 
         780            0 2.8699185e+09   -4177.4337   -7826.0608    173.99125    25314.969    12115.817 
         810            0 2.9669392e+09   -4385.8622   -8117.9539    233.71256    25247.788    12061.393 
         840            0 3.0352333e+09   -3418.6512    -8127.441    121.56482    25180.608     12006.97 
         870            0 3.0944959e+09   -4750.7807   -8452.3402    259.60559    25113.427    11952.546 
         900            0 3.1425191e+09   -4983.9339   -8787.7757    310.37785    25046.247    11898.122 
         930            0 3.5356901e+09    -5360.908   -9262.9326    188.94204    24979.066    11843.699 
         960            0 3.6752643e+09    -5605.519   -9582.8199     128.2895    24911.885    11789.275 
         990            0 3.8519902e+09   -5870.9339   -10155.459     168.9564    24844.705    11734.852 
        1020            0 3.985568e+09   -6242.9213   -10516.454    295.93249    24777.524    11680.428 
        1050            0 4.1100599e+09   -6567.9075   -11000.979    271.08219    24710.344    11626.005 
        1080            0 4.3779619e+09   -5506.7709   -5766.3314   -2011.2547    24643.163    11571.581 
        1110            0 4.6452192e+09   -7006.5007   -12532.652    381.05564    24575.983    11517.157 
        1140            0 5.0974983e+09   -7557.6918   -13259.047     429.7241    24508.802    11462.734 
        1170            0 5.4060534e+09   -8014.6612   -13865.185     436.4185    24441.622     11408.31 
        1200            0 5.7989178e+09   -8610.3209   -15026.242    610.13552    24374.441    11353.887 
        1230            0 6.2103908e+09   -9153.9521   -15893.243    569.92603    24307.261    11299.463 
        1260            0 6.3751683e+09   -9502.2139   -16449.583    504.62966     24240.08     11245.04 
        1290            0 6.5002172e+09   -9903.4272   -16920.473     435.7282      24172.9    11190.616 
        1320            0 6.5606065e+09   -10261.731   -17321.603    530.41542    24105.719    11136.192 
        1350            0 7.048762e+09   -10874.317   -17831.246    603.99972    24038.539    11081.769 
        1380            0 7.4542984e+09    -11377.81    -18661.99    562.63222    23971.358    11027.345 
        1410            0 8.5421194e+09   -12022.709   -19201.527    476.75155    23904.178    10972.922 
        1440            0 8.920195e+09   -12842.063   -19994.125    667.22224    23836.997    10918.498 
        1470            0 9.0492714e+09   -13156.888   -20589.651    600.95274    23769.817    10864.074 
        1500            0 9.2425344e+09   -13852.222   -21203.121    655.17051    23702.636    10809.651 
        1530            0 9.3588227e+09   -14309.345   -21741.766    581.99727    23635.456    10755.227 
        1560            0 9.4842765e+09   -15069.784   -22385.903    624.16022    23568.275    10700.804 
        1590            0 9.6776077e+09   -15687.066   -23017.891    518.47591    23501.095     10646.38 
        1620            0 9.9772585e+09   -16408.803   -23810.374    279.75578    23433.914    10591.957 
        1650            0 1.0347628e+10    -16858.61   -25051.978     217.0153    23366.734    10537.533 
        1680            0 1.0800059e+10   -17372.949   -26013.472    110.46578    23299.553    10483.109 
        1710            0 1.1032483e+10   -18007.156   -26974.851    378.05876    23232.373    10428.686 
        1740            0 1.1633358e+10   -18794.301   -28375.126    475.05605    23165.192    10374.262 
        1770            0 1.2042612e+10    -19568.16    -29919.84    646.77157    23098.012    10319.839 
        1800            0 1.2479324e+10   -20448.379   -30868.035     524.5698    23030.831    10265.415 
        1830            0 1.2764979e+10   -21280.994   -31880.895    457.80541     22963.65    10210.991 
        1860            0 1.3726258e+10   -22446.338   -33805.687    533.87617     22896.47    10156.568 
        1890            0 1.4409034e+10   -23783.339   -35074.644    494.87981    22829.289    10102.144 
        1920            0 1.4633843e+10   -21196.596   -28810.002   -2469.7233    22762.109    10047.721 
        1950            0 1.5219472e+10   -25076.894   -34571.133   -338.71705    22694.928    9993.2971 
        1980            0 1.6935611e+10   -25945.266   -38671.902   -348.86723    22627.748    9938.8735 
        2010            0 1.7201246e+10   -27033.596   -40975.345    362.28949    22560.567    9884.4499 
