 Input file for LIGGGHTS, created with Matlab function LIGGGHTSinit_fromdump.m

 1363 atoms

    2 atom types

     -10099.930      10099.930 xlo xhi
      -2699.999       2699.999 ylo yhi
       -100.000        100.000 zlo zhi

 2275 bonds

    1 bond types

   40 extra bond per atom

 Atoms

     1 1       1331.071       1438.726          0.000     970.664  970.664  910.000 1
     2 1       2825.432      -1995.083          0.000     970.219  970.219  910.000 1
     3 1       3791.840      -1714.113          0.000     946.584  946.584  910.000 1
     4 1      -5260.544       -273.103          0.000     906.131  906.131  910.000 1
     5 1       1371.310      -1441.792          0.000     888.823  888.823  910.000 1
     6 1      -6165.654        983.078          0.000     871.490  871.490  910.000 1
     7 1      -3101.465        997.926          0.000     861.045  861.045  910.000 1
     8 1      -3859.727       1540.586          0.000     857.735  857.735  910.000 1
     9 1      -4994.493        747.534          0.000     851.750  851.750  910.000 1
    10 1       4603.713       -407.994          0.000     847.116  847.116  910.000 1
    11 1      -1542.024        995.194          0.000     846.244  846.244  910.000 1
    12 1       2479.495        755.933          0.000     843.378  843.378  910.000 1
    13 1      -8855.513      -1076.711          0.000     834.151  834.151  910.000 1
    14 1       6591.164       -429.593          0.000     818.830  818.830  910.000 1
    15 1       -388.324       -600.415          0.000     803.200  803.200  910.000 1
    16 1      -5347.238      -1590.904          0.000     801.976  801.976  910.000 1
    17 1       5282.806        622.347          0.000     798.506  798.506  910.000 1
    18 1       5344.841      -1716.781          0.000     779.509  779.509  910.000 1
    19 1       -486.284        540.886          0.000     777.779  777.779  910.000 1
    20 1      -8050.994      -1144.095          0.000     776.385  776.385  910.000 1
    21 1      -2722.038      -2118.275          0.000     774.199  774.199  910.000 1
    22 1      -5089.468       1559.766          0.000     772.006  772.006  910.000 1
    23 1      -7012.184       -480.070          0.000     759.548  759.548  910.000 1
    24 1      -6229.018       -704.768          0.000     756.312  756.312  910.000 1
    25 1       4611.074      -1488.650          0.000     748.452  748.452  910.000 1
    26 1       7282.484      -2085.499          0.000     731.709  731.709  910.000 1
    27 1      -1312.613        211.168          0.000     730.913  730.913  910.000 1
    28 1      -7981.128       -399.300          0.000     715.920  715.920  910.000 1
    29 1       1740.555        496.597          0.000     707.766  707.766  910.000 1
    30 1      -9352.326      -2037.997          0.000     696.872  696.872  910.000 1
    31 1      -4592.166      -1227.876          0.000     668.680  668.680  910.000 1
    32 1      -2598.765        422.357          0.000     663.418  663.418  910.000 1
    33 1       5270.456       1901.549          0.000     659.699  659.699  910.000 1
    34 1       3499.924       1164.653          0.000     656.346  656.346  910.000 1
    35 1      -1204.287      -1560.489          0.000     651.163  651.163  910.000 1
    36 1      -2426.543      -1369.727          0.000     644.281  644.281  910.000 1
    37 1      -6004.330        149.578          0.000     639.854  639.854  910.000 1
    38 1       3091.892      -1215.319          0.000     638.894  638.894  910.000 1
    39 1       -488.165      -1809.639          0.000     638.513  638.513  910.000 1
    40 1       3351.073        -35.535          0.000     638.128  638.128  910.000 1
    41 1      -4937.958      -2185.172          0.000     637.448  637.448  910.000 1
    42 1       6733.206       1579.660          0.000     633.103  633.103  910.000 1
    43 1       6193.661       2183.255          0.000     632.176  632.176  910.000 1
    44 1       2048.951       -719.761          0.000     630.670  630.670  910.000 1
    45 1       6133.814       1105.934          0.000     627.966  627.966  910.000 1
    46 1      -3805.851        324.401          0.000     621.822  621.822  910.000 1
    47 1        678.804        984.876          0.000     614.565  614.565  910.000 1
    48 1       -101.009       1119.175          0.000     608.430  608.430  910.000 1
    49 1       7346.890       1484.743          0.000     605.705  605.705  910.000 1
    50 1      -9114.747        445.204          0.000     599.741  599.741  910.000 1
    51 1       3949.177        724.398          0.000     598.490  598.490  910.000 1
    52 1      -7948.659      -1823.623          0.000     594.492  594.492  910.000 1
    53 1      -3202.206        240.197          0.000     594.035  594.035  910.000 1
    54 1      -3888.987       -276.096          0.000     587.532  587.532  910.000 1
    55 1      -3022.766       1879.138          0.000     584.228  584.228  910.000 1
    56 1      -4027.144      -2037.950          0.000     574.236  574.236  910.000 1
    57 1      -1660.123       -532.212          0.000     573.103  573.103  910.000 1
    58 1      -4283.545        699.499          0.000     569.765  569.765  910.000 1
    59 1       5876.800       -608.268          0.000     569.476  569.476  910.000 1
    60 1       6644.141      -2217.565          0.000     568.700  568.700  910.000 1
    61 1       2095.427       1348.397          0.000     564.758  564.758  910.000 1
    62 1        576.490       -599.260          0.000     564.656  564.656  910.000 1
    63 1      -7796.352       1406.310          0.000     564.221  564.221  910.000 1
    64 1      -6947.348       1536.972          0.000     561.578  561.578  910.000 1
    65 1        414.880       1517.009          0.000     557.820  557.820  910.000 1
    66 1       2643.539       1967.524          0.000     554.566  554.566  910.000 1
    67 1      -8744.365      -2193.245          0.000     551.677  551.677  910.000 1
    68 1      -1749.516       1665.147          0.000     551.492  551.492  910.000 1
    69 1      -6013.429      -1463.286          0.000     551.189  551.189  910.000 1
    70 1       -761.147       2226.668          0.000     549.495  549.495  910.000 1
    71 1      -3597.050      -1674.795          0.000     548.703  548.703  910.000 1
    72 1       -885.994      -1054.676          0.000     541.021  541.021  910.000 1
    73 1      -7869.960        764.673          0.000     540.392  540.392  910.000 1
    74 1       5574.088         16.932          0.000     539.582  539.582  910.000 1
    75 1      -8995.870       -402.263          0.000     537.584  537.584  910.000 1
    76 1        924.491        235.209          0.000     537.548  537.548  910.000 1
    77 1       7142.261         -8.600          0.000     536.345  536.345  910.000 1
    78 1       5181.452       1283.512          0.000     535.762  535.762  910.000 1
    79 1      -7020.138        553.820          0.000     534.878  534.878  910.000 1
    80 1      -1898.244        -31.214          0.000     533.488  533.488  910.000 1
    81 1      -5511.404       2058.543          0.000     531.282  531.282  910.000 1
    82 1       1280.466      -2243.589          0.000     529.598  529.598  910.000 1
    83 1      -2008.042        486.395          0.000     521.959  521.959  910.000 1
    84 1       1366.137        -58.080          0.000     519.969  519.969  910.000 1
    85 1      -3603.307      -1139.356          0.000     519.518  519.518  910.000 1
    86 1      -6931.338      -1443.967          0.000     519.023  519.023  910.000 1
    87 1      -9094.734       2061.820          0.000     517.758  517.758  910.000 1
    88 1        413.183        106.205          0.000     514.181  514.181  910.000 1
    89 1      -1412.167      -1016.031          0.000     511.450  511.450  910.000 1
    90 1       1481.272       -566.189          0.000     508.474  508.474  910.000 1
    91 1      -3122.771       -945.457          0.000     507.480  507.480  910.000 1
    92 1      -7917.130        241.519          0.000     507.476  507.476  910.000 1
    93 1      -1911.678      -1112.827          0.000     503.570  503.570  910.000 1
    94 1      -7415.023      -1938.817          0.000     493.414  493.414  910.000 1
    95 1        -93.811       1669.746          0.000     489.989  489.989  910.000 1
    96 1       3910.594       1895.180          0.000     488.988  488.988  910.000 1
    97 1      -1488.760      -2054.121          0.000     485.409  485.409  910.000 1
    98 1       1892.862      -1924.015          0.000     484.523  484.523  910.000 1
    99 1      -8088.340       2270.232          0.000     481.661  481.661  910.000 1
   100 1      -7618.528       2162.444          0.000     479.935  479.935  910.000 1
   101 1       2161.449       -174.579          0.000     479.819  479.819  910.000 1
   102 1       7507.151      -1183.465          0.000     478.844  478.844  910.000 1
   103 1        797.170      -1071.114          0.000     474.515  474.515  910.000 1
   104 1      -2178.976       -451.355          0.000     474.461  474.461  910.000 1
   105 1        792.099       2265.267          0.000     468.652  468.652  910.000 1
   106 1       7516.393       -345.806          0.000     468.414  468.414  910.000 1
   107 1      -7235.236      -1053.545          0.000     467.960  467.960  910.000 1
   108 1       1851.110       2024.834          0.000     467.826  467.826  910.000 1
   109 1       2062.876      -1478.001          0.000     467.686  467.686  910.000 1
   110 1       2810.812       1483.676          0.000     466.727  466.727  910.000 1
   111 1       4709.115        240.110          0.000     462.779  462.779  910.000 1
   112 1       -806.478       -123.243          0.000     462.507  462.507  910.000 1
   113 1       6880.687      -1312.881          0.000     457.708  457.708  910.000 1
   114 1       5359.072       -471.092          0.000     450.722  450.722  910.000 1
   115 1      -3310.961      -2287.826          0.000     448.294  448.294  910.000 1
   116 1       6194.868       1641.807          0.000     447.961  447.961  910.000 1
   117 1       5098.255       -838.389          0.000     447.943  447.943  910.000 1
   118 1       3102.319       2251.834          0.000     446.708  446.708  910.000 1
   119 1       4034.684        -97.508          0.000     446.036  446.036  910.000 1
   120 1      -5521.688       1128.792          0.000     445.629  445.629  910.000 1
   121 1      -2677.280       1496.297          0.000     444.525  444.525  910.000 1
   122 1      -6589.614       2178.870          0.000     444.053  444.053  910.000 1
   123 1      -8326.416       1269.384          0.000     442.000  442.000  910.000 1
   124 1        158.806       -300.038          0.000     441.926  441.926  910.000 1
   125 1      -6901.854      -2294.490          0.000     439.219  439.219  910.000 1
   126 1      -4309.430        153.713          0.000     438.760  438.760  910.000 1
   127 1       3340.645        639.886          0.000     437.667  437.667  910.000 1
   128 1       3125.383       1809.543          0.000     436.803  436.803  910.000 1
   129 1      -4467.830       1990.271          0.000     434.168  434.168  910.000 1
   130 1       2886.137        232.883          0.000     432.869  432.869  910.000 1
   131 1      -3742.507        903.415          0.000     431.597  431.597  910.000 1
   132 1       3944.781      -1040.565          0.000     431.289  431.289  910.000 1
   133 1      -8466.817        333.142          0.000     428.111  428.111  910.000 1
   134 1       5509.191      -2299.142          0.000     427.617  427.617  910.000 1
   135 1      -6417.904      -1829.678          0.000     426.075  426.075  910.000 1
   136 1      -9500.951       2303.205          0.000     424.878  424.878  910.000 1
   137 1       7223.148        983.502          0.000     424.233  424.233  910.000 1
   138 1      -3855.209       2293.136          0.000     422.703  422.703  910.000 1
   139 1       6805.362       1055.445          0.000     421.291  421.291  910.000 1
   140 1        292.159      -2303.648          0.000     419.821  419.821  910.000 1
   141 1       5093.920         23.265          0.000     418.368  418.368  910.000 1
   142 1      -8534.350       -537.340          0.000     418.117  418.117  910.000 1
   143 1      -4387.740       1182.036          0.000     415.035  415.035  910.000 1
   144 1       4737.066       2301.238          0.000     409.772  409.772  910.000 1
   145 1       -125.544      -2304.971          0.000     407.708  407.708  910.000 1
   146 1       7048.902       2004.766          0.000     406.084  406.084  910.000 1
   147 1      -2871.155       -562.726          0.000     405.024  405.024  910.000 1
   148 1       5784.545       1760.116          0.000     403.947  403.947  910.000 1
   149 1       7377.683       -760.413          0.000     403.746  403.746  910.000 1
   150 1      -9104.898        947.600          0.000     402.682  402.682  910.000 1
   151 1      -8341.091        729.827          0.000     402.038  402.038  910.000 1
   152 1       3788.548        248.763          0.000     401.464  401.464  910.000 1
   153 1       3739.292       2306.168          0.000     399.253  399.253  910.000 1
   154 1      -2424.029       1835.011          0.000     398.497  398.497  910.000 1
   155 1       4207.908      -2244.425          0.000     398.086  398.086  910.000 1
   156 1       4173.169       1244.629          0.000     397.875  397.875  910.000 1
   157 1       4560.918      -2060.286          0.000     396.185  396.185  910.000 1
   158 1       7550.743        625.323          0.000     393.173  393.173  910.000 1
   159 1      -9196.717       1395.493          0.000     392.907  392.907  910.000 1
   160 1      -6566.571      -1170.253          0.000     390.739  390.739  910.000 1
   161 1       4760.845       1086.463          0.000     390.500  390.500  910.000 1
   162 1      -8720.205        847.903          0.000     390.095  390.095  910.000 1
   163 1       4730.135       1476.351          0.000     389.706  389.706  910.000 1
   164 1      -2290.758       -869.691          0.000     389.358  389.358  910.000 1
   165 1      -8723.293        -25.350          0.000     385.421  385.421  910.000 1
   166 1      -4353.676       -423.868          0.000     385.213  385.213  910.000 1
   167 1       6368.296      -1827.039          0.000     385.089  385.089  910.000 1
   168 1      -1176.643       -331.666          0.000     384.944  384.944  910.000 1
   169 1       7244.351      -1527.289          0.000     384.461  384.461  910.000 1
   170 1        249.303       -943.635          0.000     382.949  382.949  910.000 1
   171 1       6141.522        534.912          0.000     381.748  381.748  910.000 1
   172 1       -587.208       1218.175          0.000     381.407  381.407  910.000 1
   173 1       -527.463      -2318.752          0.000     380.126  380.126  910.000 1
   174 1      -4699.265       -590.381          0.000     380.060  380.060  910.000 1
   175 1       4397.611        525.586          0.000     380.038  380.038  910.000 1
   176 1      -8016.562      -2308.955          0.000     378.452  378.452  910.000 1
   177 1      -3494.510       -702.669          0.000     378.263  378.263  910.000 1
   178 1       -341.011       2027.647          0.000     377.734  377.734  910.000 1
   179 1      -8653.365       1966.578          0.000     377.611  377.611  910.000 1
   180 1       4699.097       1910.110          0.000     373.118  373.118  910.000 1
   181 1      -8299.267       1690.939          0.000     373.058  373.058  910.000 1
   182 1       7570.862       1921.628          0.000     372.079  372.079  910.000 1
   183 1      -1218.988       2163.720          0.000     371.668  371.668  910.000 1
   184 1      -2198.503      -1881.832          0.000     371.620  371.620  910.000 1
   185 1       2209.130       1803.778          0.000     371.566  371.566  910.000 1
   186 1      -5545.918        480.108          0.000     370.802  370.802  910.000 1
   187 1        694.589      -1903.373          0.000     370.044  370.044  910.000 1
   188 1        294.408        604.211          0.000     369.914  369.914  910.000 1
   189 1      -8882.472       1671.132          0.000     368.209  368.209  910.000 1
   190 1       2873.951       -198.156          0.000     367.449  367.449  910.000 1
   191 1      -9502.445       -293.647          0.000     366.790  366.790  910.000 1
   192 1       4335.065       1836.212          0.000     365.912  365.912  910.000 1
   193 1       -944.697        884.844          0.000     365.509  365.509  910.000 1
   194 1      -2394.851       1204.777          0.000     365.148  365.148  910.000 1
   195 1       3520.105       1719.655          0.000     364.911  364.911  910.000 1
   196 1      -9476.204      -1137.790          0.000     364.141  364.141  910.000 1
   197 1       6089.997      -2078.736          0.000     363.393  363.393  910.000 1
   198 1      -1045.151      -2321.867          0.000     362.814  362.814  910.000 1
   199 1       6328.384      -1454.314          0.000     362.723  362.723  910.000 1
   200 1      -7241.595        985.149          0.000     360.373  360.373  910.000 1
   201 1       1154.944       -854.356          0.000     360.006  360.006  910.000 1
   202 1      -2050.796       1321.758          0.000     359.808  359.808  910.000 1
   203 1       2694.532       -911.057          0.000     359.146  359.146  910.000 1
   204 1      -5793.199      -1056.683          0.000     358.198  358.198  910.000 1
   205 1       2553.921        -26.487          0.000     357.037  357.037  910.000 1
   206 1       3566.273       -927.709          0.000     356.560  356.560  910.000 1
   207 1       5987.478       -158.344          0.000     354.827  354.827  910.000 1
   208 1       6796.672       2290.694          0.000     353.949  353.949  910.000 1
   209 1      -2763.667       -195.551          0.000     353.648  353.648  910.000 1
   210 1      -3411.804       2142.840          0.000     353.353  353.353  910.000 1
   211 1      -8500.024       2342.302          0.000     352.100  352.100  910.000 1
   212 1      -6960.086       2326.956          0.000     351.198  351.198  910.000 1
   213 1      -4250.012       -798.247          0.000     349.826  349.826  910.000 1
   214 1      -3856.804       -785.986          0.000     347.962  347.962  910.000 1
   215 1      -7299.111      -2344.279          0.000     347.827  347.827  910.000 1
   216 1      -8712.384       1355.566          0.000     346.931  346.931  910.000 1
   217 1      -2251.848        847.567          0.000     346.899  346.899  910.000 1
   218 1       6467.135        159.658          0.000     346.672  346.672  910.000 1
   219 1       5609.911       -981.127          0.000     345.267  345.267  910.000 1
   220 1         38.621        317.795          0.000     343.957  343.957  910.000 1
   221 1       2769.469       -560.435          0.000     343.691  343.691  910.000 1
   222 1        852.130      -2333.104          0.000     343.197  343.197  910.000 1
   223 1       5650.109       1059.922          0.000     341.166  341.166  910.000 1
   224 1      -7349.226       1329.472          0.000     340.703  340.703  910.000 1
   225 1       7154.304        606.391          0.000     340.499  340.499  910.000 1
   226 1       6060.554        182.249          0.000     340.084  340.084  910.000 1
   227 1      -7435.245        693.003          0.000     338.530  338.530  910.000 1
   228 1       1450.950       2083.559          0.000     337.746  337.746  910.000 1
   229 1       6024.691      -1712.907          0.000     337.118  337.118  910.000 1
   230 1       4925.522      -2105.039          0.000     336.595  336.595  910.000 1
   231 1      -6477.567      -2208.128          0.000     336.552  336.552  910.000 1
   232 1       3097.514       -470.222          0.000     335.019  335.019  910.000 1
   233 1      -7490.185       -209.785          0.000     333.900  333.900  910.000 1
   234 1       3877.286       -457.352          0.000     332.959  332.959  910.000 1
   235 1      -3221.589       -445.033          0.000     332.438  332.438  910.000 1
   236 1       5321.062      -1159.912          0.000     332.402  332.402  910.000 1
   237 1      -2973.388       2335.383          0.000     331.253  331.253  910.000 1
   238 1       -907.688       1445.564          0.000     331.074  331.074  910.000 1
   239 1       7059.513       -960.148          0.000     331.046  331.046  910.000 1
   240 1      -2886.531      -1535.351          0.000     331.036  331.036  910.000 1
   241 1       5798.306        391.066          0.000     328.582  328.582  910.000 1
   242 1      -8310.813      -2111.535          0.000     328.442  328.442  910.000 1
   243 1      -4327.259       2345.713          0.000     328.327  328.327  910.000 1
   244 1       6516.206      -1163.270          0.000     328.273  328.273  910.000 1
   245 1       7596.911       1086.539          0.000     328.019  328.019  910.000 1
   246 1      -6035.246      -1904.144          0.000     327.622  327.622  910.000 1
   247 1       3265.483       -763.076          0.000     327.477  327.477  910.000 1
   248 1      -4539.741       1521.666          0.000     327.263  327.263  910.000 1
   249 1      -6897.254        998.228          0.000     327.052  327.052  910.000 1
   250 1       7237.665       2337.929          0.000     326.705  326.705  910.000 1
   251 1      -7870.717       1846.536          0.000     326.419  326.419  910.000 1
   252 1      -7654.003      -2272.908          0.000     326.014  326.014  910.000 1
   253 1        364.029       2340.429          0.000     323.479  323.479  910.000 1
   254 1      -3208.728      -1474.150          0.000     323.212  323.212  910.000 1
   255 1      -4678.716        250.503          0.000     322.793  322.793  910.000 1
   256 1       3866.286       1490.909          0.000     322.324  322.324  910.000 1
   257 1       5836.439        714.515          0.000     321.131  321.131  910.000 1
   258 1       1812.711       1006.719          0.000     319.902  319.902  910.000 1
   259 1       -487.797      -1219.669          0.000     318.827  318.827  910.000 1
   260 1      -9555.506        313.468          0.000     317.961  317.961  910.000 1
   261 1       5099.114       2360.555          0.000     317.692  317.692  910.000 1
   262 1      -4290.619      -1619.782          0.000     317.664  317.664  910.000 1
   263 1        352.517      -1939.669          0.000     316.194  316.194  910.000 1
   264 1      -4462.432      -2136.545          0.000     316.122  316.122  910.000 1
   265 1      -9091.814      -1602.405          0.000     315.637  315.637  910.000 1
   266 1       2265.399      -1141.734          0.000     315.408  315.408  910.000 1
   267 1      -7331.274       1750.047          0.000     314.340  314.340  910.000 1
   268 1       -195.676       2342.610          0.000     314.255  314.255  910.000 1
   269 1      -5869.874       -307.926          0.000     311.416  311.416  910.000 1
   270 1       2268.630      -2314.935          0.000     310.755  310.755  910.000 1
   271 1       4190.119        248.456          0.000     310.592  310.592  910.000 1
   272 1       5129.722      -2355.532          0.000     308.130  308.130  910.000 1
   273 1       5728.767       1407.354          0.000     308.120  308.120  910.000 1
   274 1       6722.063      -1702.513          0.000     307.596  307.596  910.000 1
   275 1         81.048       2199.083          0.000     307.544  307.544  910.000 1
   276 1       4728.785       -972.844          0.000     306.989  306.989  910.000 1
   277 1      -6512.081       1536.822          0.000     306.742  306.742  910.000 1
   278 1        427.045      -1636.521          0.000     306.562  306.562  910.000 1
   279 1        -62.385      -1092.574          0.000     306.193  306.193  910.000 1
   280 1       4659.062        753.091          0.000     304.845  304.845  910.000 1
   281 1      -8263.324         27.377          0.000     304.589  304.589  910.000 1
   282 1      -6201.558       1868.042          0.000     304.484  304.484  910.000 1
   283 1       1216.693        810.256          0.000     303.676  303.676  910.000 1
   284 1       4377.226        866.469          0.000     301.206  301.206  910.000 1
   285 1      -5700.453       -688.505          0.000     298.613  298.613  910.000 1
   286 1       2652.985      -1382.968          0.000     298.373  298.373  910.000 1
   287 1      -2308.710         38.136          0.000     296.955  296.955  910.000 1
   288 1      -1733.547      -2360.388          0.000     296.745  296.745  910.000 1
   289 1      -1864.671      -1857.164          0.000     296.087  296.087  910.000 1
   290 1      -6201.681       1567.121          0.000     295.828  295.828  910.000 1
   291 1       -939.033       -606.418          0.000     295.473  295.473  910.000 1
   292 1       6687.631        683.357          0.000     295.357  295.357  910.000 1
   293 1      -9561.178       1266.716          0.000     295.275  295.275  910.000 1
   294 1       1802.549       -323.192          0.000     295.099  295.099  910.000 1
   295 1      -6527.109       -270.690          0.000     294.154  294.154  910.000 1
   296 1       4285.973       -883.594          0.000     293.911  293.911  910.000 1
   297 1      -2525.444       -619.630          0.000     293.911  293.911  910.000 1
   298 1       -566.619       1556.060          0.000     293.901  293.901  910.000 1
   299 1      -7027.090      -1840.455          0.000     291.816  291.816  910.000 1
   300 1      -1081.035       1861.355          0.000     291.345  291.345  910.000 1
   301 1      -7562.116       1047.284          0.000     290.948  290.948  910.000 1
   302 1       1025.292      -1921.191          0.000     290.625  290.625  910.000 1
   303 1      -9555.294       -619.305          0.000     290.262  290.262  910.000 1
   304 1       4391.171       1511.969          0.000     290.238  290.238  910.000 1
   305 1      -2661.516       2285.051          0.000     289.011  289.011  910.000 1
   306 1      -4723.821      -1773.325          0.000     288.546  288.546  910.000 1
   307 1       6473.453        483.536          0.000     288.301  288.301  910.000 1
   308 1      -1541.962       2238.117          0.000     288.085  288.085  910.000 1
   309 1       6749.461       -961.099          0.000     287.489  287.489  910.000 1
   310 1      -1679.098      -1441.995          0.000     287.475  287.475  910.000 1
   311 1      -9057.901          5.349          0.000     284.896  284.896  910.000 1
   312 1      -1224.079       -664.046          0.000     284.690  284.690  910.000 1
   313 1      -5458.447      -1057.721          0.000     284.157  284.157  910.000 1
   314 1      -5729.365      -2213.696          0.000     284.144  284.144  910.000 1
   315 1        587.204      -1387.828          0.000     283.533  283.533  910.000 1
   316 1       6117.334       -960.734          0.000     281.786  281.786  910.000 1
   317 1      -9283.793       -711.276          0.000     281.584  281.584  910.000 1
   318 1      -4709.141        -50.314          0.000     280.056  280.056  910.000 1
   319 1       2700.176       2381.737          0.000     279.438  279.438  910.000 1
   320 1       2104.587       2379.933          0.000     279.120  279.120  910.000 1
   321 1       -611.029       1839.616          0.000     278.652  278.652  910.000 1
   322 1      -6491.348       1829.739          0.000     278.508  278.508  910.000 1
   323 1      -2620.398       -927.627          0.000     278.304  278.304  910.000 1
   324 1      -6237.258       2261.224          0.000     277.834  277.834  910.000 1
   325 1       6022.319      -1358.040          0.000     277.347  277.347  910.000 1
   326 1        -58.398      -1968.954          0.000     275.869  275.869  910.000 1
   327 1      -8442.645       -201.769          0.000     275.867  275.867  910.000 1
   328 1       2182.938        280.518          0.000     274.414  274.414  910.000 1
   329 1      -6998.199         37.997          0.000     274.279  274.279  910.000 1
   330 1      -8813.930       2342.395          0.000     274.113  274.113  910.000 1
   331 1      -3940.839      -1352.785          0.000     273.337  273.337  910.000 1
   332 1       1500.001       2385.588          0.000     272.663  272.663  910.000 1
   333 1      -6435.958         -1.646          0.000     272.529  272.529  910.000 1
   334 1      -6479.612        294.583          0.000     271.183  271.183  910.000 1
   335 1      -7244.539       2121.955          0.000     270.498  270.498  910.000 1
   336 1       7471.410        302.205          0.000     269.714  269.714  910.000 1
   337 1      -9565.631         19.078          0.000     269.667  269.667  910.000 1
   338 1       7544.364         22.360          0.000     268.162  268.162  910.000 1
   339 1       3032.965        812.993          0.000     266.596  266.596  910.000 1
   340 1       5751.401      -1386.083          0.000     265.978  265.978  910.000 1
   341 1       2464.201       -547.954          0.000     265.804  265.804  910.000 1
   342 1      -1462.466       1957.124          0.000     265.334  265.334  910.000 1
   343 1      -9493.122       1537.958          0.000     262.593  262.593  910.000 1
   344 1      -7053.466       1935.780          0.000     261.687  261.687  910.000 1
   345 1       3748.207      -2375.797          0.000     259.736  259.736  910.000 1