 Input file for LIGGGHTS, created with Matlab function LIGGGHTSinit_fromdump.m

 1534 atoms

    2 atom types

     -10099.930      10099.930 xlo xhi
      -2899.999       2899.999 ylo yhi
       -100.000        100.000 zlo zhi

 1898 bonds

    1 bond types

  100 extra bond per atom

 Atoms

     1 1       1059.540        894.297          0.000     970.664  970.664  910.000 1
     2 1       2709.254      -1757.295          0.000     970.219  970.219  910.000 1
     3 1       3791.370      -1749.975          0.000     946.584  946.584  910.000 1
     4 1      -5333.641       -276.897          0.000     906.131  906.131  910.000 1
     5 1       1231.087      -1590.145          0.000     888.823  888.823  910.000 1
     6 1      -6211.679        999.225          0.000     871.490  871.490  910.000 1
     7 1      -3302.864       1014.937          0.000     861.045  861.045  910.000 1
     8 1      -3878.825       1657.542          0.000     857.735  857.735  910.000 1
     9 1      -4995.250        819.906          0.000     851.750  851.750  910.000 1
    10 1       4294.479       -307.643          0.000     847.116  847.116  910.000 1
    11 1      -1194.983       1621.895          0.000     846.244  846.244  910.000 1
    12 1       2000.391        420.924          0.000     843.378  843.378  910.000 1
    13 1      -8844.578      -1101.286          0.000     834.151  834.151  910.000 1
    14 1       6239.727       -346.607          0.000     818.830  818.830  910.000 1
    15 1      -1521.025      -1060.738          0.000     803.200  803.200  910.000 1
    16 1      -5400.338      -1628.825          0.000     801.976  801.976  910.000 1
    17 1       4860.870        731.758          0.000     798.506  798.506  910.000 1
    18 1       5345.230      -1695.682          0.000     779.509  779.509  910.000 1
    19 1      -1226.103        589.971          0.000     777.779  777.779  910.000 1
    20 1      -8038.154      -1139.253          0.000     776.385  776.385  910.000 1
    21 1      -2999.007      -1952.836          0.000     774.199  774.199  910.000 1
    22 1      -5062.335       1631.193          0.000     772.006  772.006  910.000 1
    23 1      -6972.722       -377.695          0.000     759.548  759.548  910.000 1
    24 1      -6293.527       -718.509          0.000     756.312  756.312  910.000 1
    25 1       4604.143      -1502.217          0.000     748.452  748.452  910.000 1
    26 1       6973.454      -2064.011          0.000     731.709  731.709  910.000 1
    27 1      -1855.347        170.428          0.000     730.913  730.913  910.000 1
    28 1      -7943.527       -397.207          0.000     715.920  715.920  910.000 1
    29 1        844.504        -92.799          0.000     707.766  707.766  910.000 1
    30 1      -9353.434      -2049.331          0.000     696.872  696.872  910.000 1
    31 1      -4745.536      -1290.146          0.000     668.680  668.680  910.000 1
    32 1      -2536.178       1037.441          0.000     663.418  663.418  910.000 1
    33 1       5079.567       1905.086          0.000     659.699  659.699  910.000 1
    34 1       3055.333       1250.713          0.000     656.346  656.346  910.000 1
    35 1      -2496.266      -1449.976          0.000     644.281  644.281  910.000 1
    36 1      -5974.172        277.583          0.000     639.854  639.854  910.000 1
    37 1       3127.612      -1067.652          0.000     638.894  638.894  910.000 1
    38 1       2958.968         53.221          0.000     638.128  638.128  910.000 1
    39 1      -4939.921      -2184.883          0.000     637.448  637.448  910.000 1
    40 1       6248.295       1575.043          0.000     633.103  633.103  910.000 1
    41 1       6100.036       2195.364          0.000     632.176  632.176  910.000 1
    42 1       1538.543       -676.059          0.000     630.670  630.670  910.000 1
    43 1       5788.880       1140.832          0.000     627.966  627.966  910.000 1
    44 1      -3762.545        399.006          0.000     621.822  621.822  910.000 1
    45 1        288.867        700.641          0.000     614.565  614.565  910.000 1
    46 1       -355.896       1088.202          0.000     608.430  608.430  910.000 1
    47 1       6850.058       1421.702          0.000     605.705  605.705  910.000 1
    48 1      -9112.913        406.639          0.000     599.741  599.741  910.000 1
    49 1       3584.900        866.457          0.000     598.490  598.490  910.000 1
    50 1      -8039.708      -1826.472          0.000     594.492  594.492  910.000 1
    51 1      -3161.251        299.414          0.000     594.035  594.035  910.000 1
    52 1      -4078.343       -333.030          0.000     587.532  587.532  910.000 1
    53 1      -2946.603       1785.560          0.000     584.228  584.228  910.000 1
    54 1      -4148.393      -2031.832          0.000     574.236  574.236  910.000 1
    55 1      -2092.957       -622.189          0.000     573.103  573.103  910.000 1
    56 1      -4301.803        655.905          0.000     569.765  569.765  910.000 1
    57 1       5525.610       -510.556          0.000     569.476  569.476  910.000 1
    58 1       6333.352      -2187.295          0.000     568.700  568.700  910.000 1
    59 1       1782.880       1157.333          0.000     564.758  564.758  910.000 1
    60 1       -404.886       -409.648          0.000     564.656  564.656  910.000 1
    61 1      -7876.319       1376.294          0.000     564.221  564.221  910.000 1
    62 1      -6995.807       1606.079          0.000     561.578  561.578  910.000 1
    63 1        396.580       1278.390          0.000     557.820  557.820  910.000 1
    64 1       2435.781       1745.319          0.000     554.566  554.566  910.000 1
    65 1      -8738.761      -2191.437          0.000     551.677  551.677  910.000 1
    66 1      -1752.358       2046.444          0.000     551.492  551.492  910.000 1
    67 1      -6048.720      -1429.537          0.000     551.189  551.189  910.000 1
    68 1      -3726.722      -1623.912          0.000     548.703  548.703  910.000 1
    69 1       -963.201      -1702.636          0.000     541.021  541.021  910.000 1
    70 1      -7884.150        790.065          0.000     540.392  540.392  910.000 1
    71 1       5251.053        131.887          0.000     539.582  539.582  910.000 1
    72 1      -9051.904       -445.666          0.000     537.584  537.584  910.000 1
    73 1       -175.966        265.728          0.000     537.548  537.548  910.000 1
    74 1       6835.071         28.223          0.000     536.345  536.345  910.000 1
    75 1       4636.387       1361.800          0.000     535.762  535.762  910.000 1
    76 1      -7056.962        574.931          0.000     534.878  534.878  910.000 1
    77 1      -2488.660        195.536          0.000     533.488  533.488  910.000 1
    78 1      -5576.935       2034.008          0.000     531.282  531.282  910.000 1
    79 1       1540.056      -2239.281          0.000     529.598  529.598  910.000 1
    80 1      -1635.894       1096.554          0.000     521.959  521.959  910.000 1
    81 1        314.896       -406.313          0.000     519.969  519.969  910.000 1
    82 1      -3624.305      -1098.322          0.000     519.518  519.518  910.000 1
    83 1      -6916.780      -1539.250          0.000     519.023  519.023  910.000 1
    84 1      -9074.706       2102.066          0.000     517.758  517.758  910.000 1
    85 1       -919.159       -224.668          0.000     514.181  514.181  910.000 1
    86 1      -1550.795      -2040.312          0.000     511.450  511.450  910.000 1
    87 1       1022.430       -921.521          0.000     508.474  508.474  910.000 1
    88 1      -3200.038       -806.721          0.000     507.480  507.480  910.000 1
    89 1      -7943.772        234.831          0.000     507.476  507.476  910.000 1
    90 1      -2015.056      -1769.208          0.000     503.570  503.570  910.000 1
    91 1      -7494.642      -1800.308          0.000     493.414  493.414  910.000 1
    92 1        745.501       1780.862          0.000     489.989  489.989  910.000 1
    93 1       3765.505       2256.711          0.000     488.988  488.988  910.000 1
    94 1       -565.842      -2029.489          0.000     485.409  485.409  910.000 1
    95 1       1989.922      -1877.077          0.000     484.523  484.523  910.000 1
    96 1      -8124.827       2063.902          0.000     481.661  481.661  910.000 1
    97 1      -7689.825       2271.582          0.000     479.935  479.935  910.000 1
    98 1       1625.441       -126.225          0.000     479.819  479.819  910.000 1
    99 1       7214.764      -1126.586          0.000     478.844  478.844  910.000 1
   100 1        -53.920       -795.307          0.000     474.515  474.515  910.000 1
   101 1      -2514.852       -309.528          0.000     474.461  474.461  910.000 1
   102 1       1225.976       1789.602          0.000     468.652  468.652  910.000 1
   103 1       7214.540       -356.502          0.000     468.414  468.414  910.000 1
   104 1      -7244.539       -929.722          0.000     467.960  467.960  910.000 1
   105 1       1985.342       1989.772          0.000     467.826  467.826  910.000 1
   106 1       1856.079      -1305.521          0.000     467.686  467.686  910.000 1
   107 1       2492.540       1236.526          0.000     466.727  466.727  910.000 1
   108 1       4360.194        345.681          0.000     462.779  462.779  910.000 1
   109 1      -1631.518       -384.360          0.000     462.507  462.507  910.000 1
   110 1       6563.663      -1410.345          0.000     457.708  457.708  910.000 1
   111 1       5032.274       -366.965          0.000     450.722  450.722  910.000 1
   112 1      -3512.401      -2287.415          0.000     448.294  448.294  910.000 1
   113 1       5566.094       1637.549          0.000     447.961  447.961  910.000 1
   114 1       4779.677       -739.963          0.000     447.943  447.943  910.000 1
   115 1       2729.598       2253.881          0.000     446.708  446.708  910.000 1
   116 1       3602.484        158.271          0.000     446.036  446.036  910.000 1
   117 1      -5565.158       1133.181          0.000     445.629  445.629  910.000 1
   118 1      -2468.377       1588.702          0.000     444.525  444.525  910.000 1
   119 1      -6476.074       2260.945          0.000     444.053  444.053  910.000 1
   120 1      -8455.863       1127.828          0.000     442.000  442.000  910.000 1
   121 1      -1004.421       -710.470          0.000     441.926  441.926  910.000 1
   122 1      -6915.022      -2291.405          0.000     439.219  439.219  910.000 1
   123 1      -4245.596        153.486          0.000     438.760  438.760  910.000 1
   124 1       2852.748        741.096          0.000     437.667  437.667  910.000 1
   125 1       2922.676       1844.841          0.000     436.803  436.803  910.000 1
   126 1      -4611.242       2033.817          0.000     434.168  434.168  910.000 1
   127 1       2432.325        -51.086          0.000     432.869  432.869  910.000 1
   128 1      -3951.103       1015.285          0.000     431.597  431.597  910.000 1
   129 1       4051.553      -1110.148          0.000     431.289  431.289  910.000 1
   130 1      -8453.201        314.326          0.000     428.111  428.111  910.000 1
   131 1       5158.798      -2288.436          0.000     427.617  427.617  910.000 1
   132 1      -6454.994      -1909.400          0.000     426.075  426.075  910.000 1
   133 1      -9502.564       2302.606          0.000     424.878  424.878  910.000 1
   134 1       7092.085        965.660          0.000     424.233  424.233  910.000 1
   135 1      -3887.392       2299.353          0.000     422.703  422.703  910.000 1
   136 1       6568.284        990.855          0.000     421.291  421.291  910.000 1
   137 1       4752.237        131.516          0.000     418.368  418.368  910.000 1
   138 1      -8477.559       -592.029          0.000     418.117  418.117  910.000 1
   139 1      -4349.853       1160.575          0.000     415.035  415.035  910.000 1
   140 1       4534.277       2290.827          0.000     409.772  409.772  910.000 1
   141 1       6835.664       2042.076          0.000     406.084  406.084  910.000 1
   142 1      -2938.669       -431.334          0.000     405.024  405.024  910.000 1
   143 1       5558.242       2139.945          0.000     403.947  403.947  910.000 1
   144 1       7002.018       -738.664          0.000     403.746  403.746  910.000 1
   145 1      -9252.504        889.349          0.000     402.682  402.682  910.000 1
   146 1      -8351.032        717.919          0.000     402.038  402.038  910.000 1
   147 1       3298.525        455.069          0.000     401.464  401.464  910.000 1
   148 1       3356.839       2079.956          0.000     399.253  399.253  910.000 1
   149 1      -2504.220       2009.927          0.000     398.497  398.497  910.000 1
   150 1       3402.516      -2300.546          0.000     398.086  398.086  910.000 1
   151 1       3602.852       1375.830          0.000     397.875  397.875  910.000 1
   152 1       4317.399      -2169.959          0.000     396.185  396.185  910.000 1
   153 1       7249.953        587.535          0.000     393.173  393.173  910.000 1
   154 1      -9226.253       1292.490          0.000     392.907  392.907  910.000 1
   155 1      -6653.653      -1166.768          0.000     390.739  390.739  910.000 1
   156 1       4189.792       1234.774          0.000     390.500  390.500  910.000 1
   157 1      -8736.749        812.221          0.000     390.095  390.095  910.000 1
   158 1       4194.883       1633.257          0.000     389.706  389.706  910.000 1
   159 1      -2463.552       -931.120          0.000     389.358  389.358  910.000 1
   160 1      -8726.916        -89.894          0.000     385.421  385.421  910.000 1
   161 1      -4562.743       -246.024          0.000     385.213  385.213  910.000 1
   162 1       6021.971      -1688.693          0.000     385.089  385.089  910.000 1
   163 1      -2115.162      -1102.220          0.000     384.944  384.944  910.000 1
   164 1       7005.575      -1505.424          0.000     384.461  384.461  910.000 1
   165 1       -627.693       -880.938          0.000     382.949  382.949  910.000 1
   166 1       5779.311        634.770          0.000     381.748  381.748  910.000 1
   167 1       -586.677       1527.779          0.000     381.407  381.407  910.000 1
   168 1      -4774.263       -597.498          0.000     380.060  380.060  910.000 1
   169 1       3988.271        587.349          0.000     380.038  380.038  910.000 1
   170 1      -7957.124      -2307.170          0.000     378.452  378.452  910.000 1
   171 1      -3596.621       -607.074          0.000     378.263  378.263  910.000 1
   172 1      -8642.314       1981.710          0.000     377.611  377.611  910.000 1
   173 1       4476.331       1902.638          0.000     373.118  373.118  910.000 1
   174 1      -8323.171       1521.474          0.000     373.058  373.058  910.000 1
   175 1       7260.912       1780.740          0.000     372.079  372.079  910.000 1
   176 1      -2445.293      -2317.418          0.000     371.620  371.620  910.000 1
   177 1       1772.861       1626.587          0.000     371.566  371.566  910.000 1
   178 1      -5537.800        534.940          0.000     370.802  370.802  910.000 1
   179 1        375.724      -1346.266          0.000     370.044  370.044  910.000 1
   180 1       -586.615        461.524          0.000     369.914  369.914  910.000 1
   181 1      -8888.094       1699.058          0.000     368.209  368.209  910.000 1
   182 1       2589.498       -420.198          0.000     367.449  367.449  910.000 1
   183 1      -9524.963       -329.799          0.000     366.790  366.790  910.000 1
   184 1       4166.688       2106.021          0.000     365.912  365.912  910.000 1
   185 1       -925.129       1077.699          0.000     365.509  365.509  910.000 1
   186 1      -2069.403       1290.785          0.000     365.148  365.148  910.000 1
   187 1       3298.096       1701.431          0.000     364.911  364.911  910.000 1
   188 1      -9517.790      -1012.772          0.000     364.141  364.141  910.000 1
   189 1       5829.712      -2134.057          0.000     363.393  363.393  910.000 1
   190 1       6135.716      -1279.178          0.000     362.723  362.723  910.000 1
   191 1      -7249.344       1075.332          0.000     360.373  360.373  910.000 1
   192 1        587.081       -919.125          0.000     360.006  360.006  910.000 1
   193 1      -1912.700       1618.670          0.000     359.808  359.808  910.000 1
   194 1       2422.286       -890.102          0.000     359.146  359.146  910.000 1
   195 1      -5829.308      -1029.389          0.000     358.198  358.198  910.000 1
   196 1       2152.779       -354.797          0.000     357.037  357.037  910.000 1
   197 1       3639.370       -992.443          0.000     356.560  356.560  910.000 1
   198 1       5664.851        -66.102          0.000     354.827  354.827  910.000 1
   199 1       6577.505       2323.446          0.000     353.949  353.949  910.000 1
   200 1      -2851.853        -61.068          0.000     353.648  353.648  910.000 1
   201 1      -3442.740       2079.904          0.000     353.353  353.353  910.000 1
   202 1      -8468.017       2304.213          0.000     352.100  352.100  910.000 1
   203 1      -6915.022       2317.124          0.000     351.198  351.198  910.000 1
   204 1      -4431.292       -724.895          0.000     349.826  349.826  910.000 1
   205 1      -3918.184       -777.820          0.000     347.962  347.962  910.000 1
   206 1      -7306.309      -2342.230          0.000     347.827  347.827  910.000 1
   207 1      -8777.386       1358.094          0.000     346.931  346.931  910.000 1
   208 1      -2040.266        934.705          0.000     346.899  346.899  910.000 1
   209 1       6162.214        232.470          0.000     346.672  346.672  910.000 1
   210 1       5218.788       -896.012          0.000     345.267  345.267  910.000 1
   211 1       -825.657        195.217          0.000     343.957  343.957  910.000 1
   212 1       2769.019       -728.242          0.000     343.691  343.691  910.000 1
   213 1       1100.393      -2282.676          0.000     343.197  343.197  910.000 1
   214 1       5244.142       1155.453          0.000     341.166  341.166  910.000 1
   215 1      -7422.732       1381.108          0.000     340.703  340.703  910.000 1
   216 1       6827.567        620.659          0.000     340.499  340.499  910.000 1
   217 1       5723.778        277.217          0.000     340.084  340.084  910.000 1
   218 1      -7443.608        783.784          0.000     338.530  338.530  910.000 1
   219 1       1581.603       1981.803          0.000     337.746  337.746  910.000 1
   220 1       5794.728      -1361.996          0.000     337.118  337.118  910.000 1
   221 1       4754.098      -2025.046          0.000     336.595  336.595  910.000 1
   222 1      -6529.276      -2340.863          0.000     336.552  336.552  910.000 1
   223 1       2941.323       -434.825          0.000     335.019  335.019  910.000 1
   224 1      -7479.655       -148.682          0.000     333.900  333.900  910.000 1
   225 1       3578.010       -244.696          0.000     332.959  332.959  910.000 1
   226 1      -3307.035       -399.515          0.000     332.438  332.438  910.000 1
   227 1       5079.383      -1205.790          0.000     332.402  332.402  910.000 1
   228 1      -2972.038       2261.026          0.000     331.253  331.253  910.000 1
   229 1       -407.789       1859.916          0.000     331.074  331.074  910.000 1
   230 1       6735.660      -1054.329          0.000     331.046  331.046  910.000 1
   231 1      -2982.548      -1399.046          0.000     331.036  331.036  910.000 1
   232 1       5441.104        523.387          0.000     328.582  328.582  910.000 1
   233 1      -8297.981      -2210.321          0.000     328.442  328.442  910.000 1
   234 1      -4377.722       2336.397          0.000     328.327  328.327  910.000 1
   235 1       6392.116      -1046.279          0.000     328.273  328.273  910.000 1
   236 1       7301.990       1299.949          0.000     328.019  328.019  910.000 1
   237 1      -6078.695      -1869.380          0.000     327.622  327.622  910.000 1
   238 1       3450.464       -706.289          0.000     327.477  327.477  910.000 1
   239 1      -4513.651       1580.257          0.000     327.263  327.263  910.000 1
   240 1      -6904.819       1081.712          0.000     327.052  327.052  910.000 1
   241 1       7049.188       2340.962          0.000     326.705  326.705  910.000 1
   242 1      -7735.401       1869.950          0.000     326.419  326.419  910.000 1
   243 1      -7610.084      -2194.516          0.000     326.014  326.014  910.000 1
   244 1        908.604       2154.602          0.000     323.479  323.479  910.000 1
   245 1      -3308.180      -1497.838          0.000     323.212  323.212  910.000 1
   246 1      -4736.928        289.479          0.000     322.793  322.793  910.000 1
   247 1       3649.205       1866.997          0.000     322.324  322.324  910.000 1
   248 1       5410.045        847.589          0.000     321.131  321.131  910.000 1
   249 1       1420.709        357.565          0.000     319.902  319.902  910.000 1
   250 1       -870.271      -1281.753          0.000     318.827  318.827  910.000 1
   251 1      -9560.528        300.400          0.000     317.961  317.961  910.000 1
   252 1       4892.705       2357.996          0.000     317.692  317.692  910.000 1
   253 1      -4258.661      -1376.206          0.000     317.664  317.664  910.000 1
   254 1        854.175      -2062.166          0.000     316.194  316.194  910.000 1
   255 1      -4483.492      -2326.896          0.000     316.122  316.122  910.000 1
   256 1      -9057.838      -1636.748          0.000     315.637  315.637  910.000 1
   257 1       2014.478       -946.351          0.000     315.408  315.408  910.000 1
   258 1      -7417.927       1726.951          0.000     314.340  314.340  910.000 1
   259 1      -5942.848       -314.139          0.000     311.416  311.416  910.000 1
   260 1       2480.804      -2357.427          0.000     310.755  310.755  910.000 1
   261 1       3972.506        241.513          0.000     310.592  310.592  910.000 1
   262 1       4794.460      -2345.700          0.000     308.130  308.130  910.000 1
   263 1       5055.297       1420.548          0.000     308.120  308.120  910.000 1
   264 1       6371.772      -1749.714          0.000     307.596  307.596  910.000 1
   265 1       4403.377       -875.979          0.000     306.989  306.989  910.000 1
   266 1      -6560.907       1588.592          0.000     306.742  306.742  910.000 1
   267 1        -39.280      -1193.344          0.000     306.562  306.562  910.000 1
   268 1       -563.040      -1220.348          0.000     306.193  306.193  910.000 1
   269 1       4340.954        920.675          0.000     304.845  304.845  910.000 1
   270 1      -8272.417         -5.388          0.000     304.589  304.589  910.000 1
   271 1      -6377.358       1859.266          0.000     304.484  304.484  910.000 1
   272 1        556.636        326.100          0.000     303.676  303.676  910.000 1
   273 1       4031.965        926.034          0.000     301.206  301.206  910.000 1
   274 1      -5764.799       -700.280          0.000     298.613  298.613  910.000 1
   275 1       2659.671      -1123.256          0.000     298.373  298.373  910.000 1
   276 1      -2348.928        589.513          0.000     296.955  296.955  910.000 1
   277 1       -993.687      -2283.854          0.000     296.745  296.745  910.000 1
   278 1      -1899.860      -2245.278          0.000     296.087  296.087  910.000 1
   279 1      -6258.911       1582.618          0.000     295.828  295.828  910.000 1
   280 1      -1654.337      -1595.104          0.000     295.473  295.473  910.000 1
   281 1       6345.375        709.126          0.000     295.357  295.357  910.000 1
   282 1      -9571.007       1304.693          0.000     295.275  295.275  910.000 1
   283 1       1099.350       -526.123          0.000     295.099  295.099  910.000 1
   284 1      -6467.732       -221.583          0.000     294.154  294.154  910.000 1
   285 1       3921.533       -741.315          0.000     293.911  293.911  910.000 1
   286 1      -2673.947       -660.840          0.000     293.911  293.911  910.000 1
   287 1       -244.380       1592.623          0.000     293.901  293.901  910.000 1
   288 1      -7186.267      -2044.917          0.000     291.816  291.816  910.000 1
   289 1      -7575.836       1070.553          0.000     290.948  290.948  910.000 1
   290 1        608.161      -1597.493          0.000     290.625  290.625  910.000 1
   291 1      -9563.323       -665.074          0.000     290.262  290.262  910.000 1
   292 1       3854.080       1638.269          0.000     290.238  290.238  910.000 1
   293 1      -2680.408       2368.802          0.000     289.011  289.011  910.000 1
   294 1      -4564.092      -1912.468          0.000     288.546  288.546  910.000 1
   295 1       6103.021        545.218          0.000     288.301  288.301  910.000 1
   296 1      -1011.966       2347.980          0.000     288.085  288.085  910.000 1
   297 1       6568.713       -793.062          0.000     287.489  287.489  910.000 1
   298 1      -2170.491      -2134.005          0.000     287.475  287.475  910.000 1
   299 1      -9058.194        -33.425          0.000     284.896  284.896  910.000 1
   300 1      -1376.570      -1681.269          0.000     284.690  284.690  910.000 1
   301 1      -5514.348      -1096.281          0.000     284.157  284.157  910.000 1
   302 1      -5998.892      -2239.095          0.000     284.144  284.144  910.000 1
   303 1        222.927      -1056.406          0.000     283.533  283.533  910.000 1
   304 1       5929.532       -802.859          0.000     281.786  281.786  910.000 1
   305 1      -9298.251       -774.195          0.000     281.584  281.584  910.000 1
   306 1      -4804.360         -5.515          0.000     280.056  280.056  910.000 1
   307 1       2368.409       2299.080          0.000     279.438  279.438  910.000 1
   308 1       1960.827       2363.402          0.000     279.120  279.120  910.000 1
   309 1      -6745.847       1945.982          0.000     278.508  278.508  910.000 1
   310 1      -2798.058       -920.303          0.000     278.304  278.304  910.000 1
   311 1      -6117.625       2211.407          0.000     277.834  277.834  910.000 1
   312 1       5750.461      -1050.461          0.000     277.347  277.347  910.000 1
   313 1        618.855      -1881.299          0.000     275.869  275.869  910.000 1
   314 1      -8434.898       -246.772          0.000     275.867  275.867  910.000 1
   315 1       1305.309         80.667          0.000     274.414  274.414  910.000 1
   316 1      -6980.328        149.896          0.000     274.279  274.279  910.000 1
   317 1      -8776.341       2363.872          0.000     274.113  274.113  910.000 1
   318 1      -3979.974      -1275.698          0.000     273.337  273.337  910.000 1
   319 1       1485.136       2272.185          0.000     272.663  272.663  910.000 1
   320 1      -6367.523         44.220          0.000     272.529  272.529  910.000 1
   321 1      -6537.394        300.899          0.000     271.183  271.183  910.000 1
   322 1      -7321.153       2196.768          0.000     270.498  270.498  910.000 1
   323 1       7160.683        267.462          0.000     269.714  269.714  910.000 1
   324 1      -9564.867          2.767          0.000     269.667  269.667  910.000 1
   325 1       7245.884         11.392          0.000     268.162  268.162  910.000 1
   326 1       2538.770        562.427          0.000     266.596  266.596  910.000 1
   327 1       5525.139      -1203.447          0.000     265.978  265.978  910.000 1
   328 1       1984.095       -617.514          0.000     265.804  265.804  910.000 1
   329 1      -9432.863       1547.992          0.000     262.593  262.593  910.000 1
   330 1      -7229.470       1946.249          0.000     261.687  261.687  910.000 1
   331 1       2868.778      -2380.420          0.000     259.736  259.736  910.000 1
   332 1       -738.738       2324.948          0.000     258.950  258.950  910.000 1
   333 1       7339.877       2299.904          0.000     258.946  258.946  910.000 1
   334 1      -9528.652       1919.134          0.000     258.942  258.942  910.000 1
   335 1      -6752.492        830.804          0.000     258.501  258.501  910.000 1
   336 1       -628.899       2090.286          0.000     257.921  257.921  910.000 1
   337 1      -6436.919      -1545.891          0.000     257.282  257.282  910.000 1
   338 1      -8466.655      -1741.531          0.000     256.740  256.740  910.000 1
   339 1        998.978       1506.087          0.000     255.754  255.754  910.000 1
   340 1       2135.993      -1536.008          0.000     255.644  255.644  910.000 1
   341 1       6091.469        817.545          0.000     255.391  255.391  910.000 1
   342 1        399.729         94.071          0.000     254.613  254.613  910.000 1
   343 1      -1323.409       -568.823          0.000     253.871  253.871  910.000 1
   344 1      -8722.953      -1732.726          0.000     253.404  253.404  910.000 1
   345 1      -1268.898      -2300.030          0.000     253.187  253.187  910.000 1