 Input file for LIGGGHTS, created with Matlab function LIGGGHTSinit_fromdump.m

 1399 atoms

    2 atom types

     -10099.930      10099.930 xlo xhi
      -2899.999       2899.999 ylo yhi
       -100.000        100.000 zlo zhi

    0 bonds

    1 bond types

  100 extra bond per atom

 Atoms

     1 1       1059.540        894.297          0.000     973.146  973.146  910.000 1
     2 1       2709.254      -1757.295          0.000     972.700  972.700  910.000 1
     3 1       3791.370      -1749.975          0.000     949.004  949.004  910.000 1
     4 1      -5333.641       -276.897          0.000     884.862  884.862  910.000 1
     5 1       1231.087      -1590.145          0.000     891.096  891.096  910.000 1
     6 1      -6211.679        999.225          0.000     851.034  851.034  910.000 1
     7 1      -3302.864       1014.937          0.000     840.834  840.834  910.000 1
     8 1      -3878.825       1657.542          0.000     837.602  837.602  910.000 1
     9 1      -4995.250        819.906          0.000     831.758  831.758  910.000 1
    10 1       4294.479       -307.643          0.000     849.282  849.282  910.000 1
    11 1      -1194.983       1621.895          0.000     826.381  826.381  910.000 1
    12 1       2000.391        420.924          0.000     845.534  845.534  910.000 1
    13 1      -8844.578      -1101.286          0.000     814.572  814.572  910.000 1
    14 1       6239.727       -346.607          0.000     820.924  820.924  910.000 1
    15 1      -1521.025      -1060.738          0.000     784.348  784.348  910.000 1
    16 1      -5400.338      -1628.825          0.000     783.151  783.151  910.000 1
    17 1      -1226.103        589.971          0.000     759.523  759.523  910.000 1
    18 1      -8038.154      -1139.253          0.000     758.161  758.161  910.000 1
    19 1      -2999.007      -1952.836          0.000     756.026  756.026  910.000 1
    20 1      -5062.335       1631.193          0.000     753.885  753.885  910.000 1
    21 1      -6972.722       -377.695          0.000     741.720  741.720  910.000 1
    22 1      -6293.527       -718.509          0.000     738.560  738.560  910.000 1
    23 1       4604.143      -1502.217          0.000     750.366  750.366  910.000 1
    24 1      -1855.347        170.428          0.000     713.757  713.757  910.000 1
    25 1      -7943.527       -397.207          0.000     699.115  699.115  910.000 1
    26 1        844.504        -92.799          0.000     709.576  709.576  910.000 1
    27 1      -9353.434      -2049.331          0.000     680.515  680.515  910.000 1
    28 1      -4745.536      -1290.146          0.000     652.985  652.985  910.000 1
    29 1      -2536.178       1037.441          0.000     647.846  647.846  910.000 1
    30 1       3055.333       1250.713          0.000     658.024  658.024  910.000 1
    31 1      -2496.266      -1449.976          0.000     629.158  629.158  910.000 1
    32 1      -5974.172        277.583          0.000     624.835  624.835  910.000 1
    33 1       3127.612      -1067.652          0.000     640.528  640.528  910.000 1
    34 1       2958.968         53.221          0.000     639.760  639.760  910.000 1
    35 1      -4939.921      -2184.883          0.000     622.486  622.486  910.000 1
    36 1       6248.295       1575.043          0.000     634.722  634.722  910.000 1
    37 1       6100.036       2195.364          0.000     633.792  633.792  910.000 1
    38 1       1538.543       -676.059          0.000     632.282  632.282  910.000 1
    39 1       5788.880       1140.832          0.000     629.572  629.572  910.000 1
    40 1      -3762.545        399.006          0.000     607.227  607.227  910.000 1
    41 1        288.867        700.641          0.000     600.140  600.140  910.000 1
    42 1       -355.896       1088.202          0.000     594.149  594.149  910.000 1
    43 1       6850.058       1421.702          0.000     607.254  607.254  910.000 1
    44 1      -9112.913        406.639          0.000     585.663  585.663  910.000 1
    45 1      -8039.708      -1826.472          0.000     580.538  580.538  910.000 1
    46 1      -3161.251        299.414          0.000     580.092  580.092  910.000 1
    47 1      -4078.343       -333.030          0.000     573.741  573.741  910.000 1
    48 1      -2946.603       1785.560          0.000     570.515  570.515  910.000 1
    49 1      -4148.393      -2031.832          0.000     560.757  560.757  910.000 1
    50 1      -2092.957       -622.189          0.000     559.651  559.651  910.000 1
    51 1      -4301.803        655.905          0.000     556.392  556.392  910.000 1
    52 1       1782.880       1157.333          0.000     566.202  566.202  910.000 1
    53 1       -404.886       -409.648          0.000     551.403  551.403  910.000 1
    54 1      -7876.319       1376.294          0.000     550.978  550.978  910.000 1
    55 1      -6995.807       1606.079          0.000     548.397  548.397  910.000 1
    56 1        396.580       1278.390          0.000     544.727  544.727  910.000 1
    57 1       2435.781       1745.319          0.000     555.984  555.984  910.000 1
    58 1      -8738.761      -2191.437          0.000     538.728  538.728  910.000 1
    59 1      -1752.358       2046.444          0.000     538.547  538.547  910.000 1
    60 1      -6048.720      -1429.537          0.000     538.251  538.251  910.000 1
    61 1      -3726.722      -1623.912          0.000     535.824  535.824  910.000 1
    62 1       -963.201      -1702.636          0.000     528.322  528.322  910.000 1
    63 1      -7884.150        790.065          0.000     527.708  527.708  910.000 1
    64 1       5251.053        131.887          0.000     540.962  540.962  910.000 1
    65 1      -9051.904       -445.666          0.000     524.965  524.965  910.000 1
    66 1       -175.966        265.728          0.000     524.930  524.930  910.000 1
    67 1       6835.071         28.223          0.000     537.716  537.716  910.000 1
    68 1       4636.387       1361.800          0.000     537.132  537.132  910.000 1
    69 1      -7056.962        574.931          0.000     522.324  522.324  910.000 1
    70 1      -2488.660        195.536          0.000     520.966  520.966  910.000 1
    71 1      -5576.935       2034.008          0.000     518.811  518.811  910.000 1
    72 1       1540.056      -2239.281          0.000     530.952  530.952  910.000 1
    73 1      -1635.894       1096.554          0.000     509.708  509.708  910.000 1
    74 1        314.896       -406.313          0.000     507.764  507.764  910.000 1
    75 1      -3624.305      -1098.322          0.000     507.323  507.323  910.000 1
    76 1      -6916.780      -1539.250          0.000     506.840  506.840  910.000 1
    77 1      -9074.706       2102.066          0.000     505.605  505.605  910.000 1
    78 1       -919.159       -224.668          0.000     502.112  502.112  910.000 1
    79 1      -1550.795      -2040.312          0.000     499.445  499.445  910.000 1
    80 1       1022.430       -921.521          0.000     509.774  509.774  910.000 1
    81 1      -3200.038       -806.721          0.000     495.569  495.569  910.000 1
    82 1      -7943.772        234.831          0.000     495.565  495.565  910.000 1
    83 1      -2015.056      -1769.208          0.000     491.751  491.751  910.000 1
    84 1      -7494.642      -1800.308          0.000     481.833  481.833  910.000 1
    85 1        745.501       1780.862          0.000     491.242  491.242  910.000 1
    86 1       -565.842      -2029.489          0.000     474.015  474.015  910.000 1
    87 1       1989.922      -1877.077          0.000     485.762  485.762  910.000 1
    88 1      -8124.827       2063.902          0.000     470.355  470.355  910.000 1
    89 1      -7689.825       2271.582          0.000     468.670  468.670  910.000 1
    90 1       1625.441       -126.225          0.000     481.046  481.046  910.000 1
    91 1       7214.764      -1126.586          0.000     480.068  480.068  910.000 1
    92 1        -53.920       -795.307          0.000     463.377  463.377  910.000 1
    93 1      -2514.852       -309.528          0.000     463.324  463.324  910.000 1
    94 1       1225.976       1789.602          0.000     469.850  469.850  910.000 1
    95 1      -7244.539       -929.722          0.000     456.975  456.975  910.000 1
    96 1       1985.342       1989.772          0.000     469.022  469.022  910.000 1
    97 1       1856.079      -1305.521          0.000     468.882  468.882  910.000 1
    98 1       2492.540       1236.526          0.000     467.920  467.920  910.000 1
    99 1       4360.194        345.681          0.000     463.962  463.962  910.000 1
   100 1      -1631.518       -384.360          0.000     451.651  451.651  910.000 1
   101 1      -3512.401      -2287.415          0.000     437.771  437.771  910.000 1
   102 1       5566.094       1637.549          0.000     449.106  449.106  910.000 1
   103 1       2729.598       2253.881          0.000     447.850  447.850  910.000 1
   104 1       3602.484        158.271          0.000     447.176  447.176  910.000 1
   105 1      -5565.158       1133.181          0.000     435.169  435.169  910.000 1
   106 1      -2468.377       1588.702          0.000     434.091  434.091  910.000 1
   107 1      -6476.074       2260.945          0.000     433.630  433.630  910.000 1
   108 1      -8455.863       1127.828          0.000     431.625  431.625  910.000 1
   109 1      -1004.421       -710.470          0.000     431.553  431.553  910.000 1
   110 1      -6915.022      -2291.405          0.000     428.910  428.910  910.000 1
   111 1      -4245.596        153.486          0.000     428.462  428.462  910.000 1
   112 1       2852.748        741.096          0.000     438.786  438.786  910.000 1
   113 1       2922.676       1844.841          0.000     437.920  437.920  910.000 1
   114 1      -4611.242       2033.817          0.000     423.977  423.977  910.000 1
   115 1       2432.325        -51.086          0.000     433.976  433.976  910.000 1
   116 1      -3951.103       1015.285          0.000     421.466  421.466  910.000 1
   117 1      -8453.201        314.326          0.000     418.063  418.063  910.000 1
   118 1       5158.798      -2288.436          0.000     428.710  428.710  910.000 1
   119 1      -6454.994      -1909.400          0.000     416.074  416.074  910.000 1
   120 1      -9502.564       2302.606          0.000     414.905  414.905  910.000 1
   121 1      -3887.392       2299.353          0.000     412.781  412.781  910.000 1
   122 1       4752.237        131.516          0.000     419.438  419.438  910.000 1
   123 1      -8477.559       -592.029          0.000     408.303  408.303  910.000 1
   124 1      -4349.853       1160.575          0.000     405.293  405.293  910.000 1
   125 1       4534.277       2290.827          0.000     410.820  410.820  910.000 1
   126 1       6835.664       2042.076          0.000     407.122  407.122  910.000 1
   127 1      -2938.669       -431.334          0.000     395.518  395.518  910.000 1
   128 1       7002.018       -738.664          0.000     404.778  404.778  910.000 1
   129 1      -9252.504        889.349          0.000     393.231  393.231  910.000 1
   130 1      -8351.032        717.919          0.000     392.601  392.601  910.000 1
   131 1      -2504.220       2009.927          0.000     389.144  389.144  910.000 1
   132 1       3602.852       1375.830          0.000     398.892  398.892  910.000 1
   133 1       4317.399      -2169.959          0.000     397.198  397.198  910.000 1
   134 1      -9226.253       1292.490          0.000     383.685  383.685  910.000 1
   135 1      -6653.653      -1166.768          0.000     381.567  381.567  910.000 1
   136 1      -8736.749        812.221          0.000     380.938  380.938  910.000 1
   137 1       4194.883       1633.257          0.000     390.702  390.702  910.000 1
   138 1      -2463.552       -931.120          0.000     380.219  380.219  910.000 1
   139 1      -8726.916        -89.894          0.000     376.374  376.374  910.000 1
   140 1      -4562.743       -246.024          0.000     376.171  376.171  910.000 1
   141 1       6021.971      -1688.693          0.000     386.074  386.074  910.000 1
   142 1      -2115.162      -1102.220          0.000     375.908  375.908  910.000 1
   143 1       -627.693       -880.938          0.000     373.960  373.960  910.000 1
   144 1       -586.677       1527.779          0.000     372.454  372.454  910.000 1
   145 1      -4774.263       -597.498          0.000     371.139  371.139  910.000 1
   146 1      -7957.124      -2307.170          0.000     369.569  369.569  910.000 1
   147 1      -3596.621       -607.074          0.000     369.384  369.384  910.000 1
   148 1      -8642.314       1981.710          0.000     368.747  368.747  910.000 1
   149 1      -8323.171       1521.474          0.000     364.302  364.302  910.000 1
   150 1      -2445.293      -2317.418          0.000     362.897  362.897  910.000 1
   151 1       1772.861       1626.587          0.000     372.516  372.516  910.000 1
   152 1      -5537.800        534.940          0.000     362.098  362.098  910.000 1
   153 1        375.724      -1346.266          0.000     361.358  361.358  910.000 1
   154 1       -586.615        461.524          0.000     361.232  361.232  910.000 1
   155 1      -8888.094       1699.058          0.000     359.566  359.566  910.000 1
   156 1       2589.498       -420.198          0.000     368.388  368.388  910.000 1
   157 1      -9524.963       -329.799          0.000     358.181  358.181  910.000 1
   158 1       4166.688       2106.021          0.000     366.848  366.848  910.000 1
   159 1       -925.129       1077.699          0.000     356.930  356.930  910.000 1
   160 1      -2069.403       1290.785          0.000     356.578  356.578  910.000 1
   161 1      -9517.790      -1012.772          0.000     355.594  355.594  910.000 1
   162 1      -7249.344       1075.332          0.000     351.914  351.914  910.000 1
   163 1        587.081       -919.125          0.000     360.926  360.926  910.000 1
   164 1      -1912.700       1618.670          0.000     351.363  351.363  910.000 1
   165 1       2422.286       -890.102          0.000     360.064  360.064  910.000 1
   166 1      -5829.308      -1029.389          0.000     349.790  349.790  910.000 1
   167 1       2152.779       -354.797          0.000     357.950  357.950  910.000 1
   168 1       5664.851        -66.102          0.000     355.734  355.734  910.000 1
   169 1       6577.505       2323.446          0.000     354.854  354.854  910.000 1
   170 1      -2851.853        -61.068          0.000     345.347  345.347  910.000 1
   171 1      -3442.740       2079.904          0.000     345.059  345.059  910.000 1
   172 1      -8468.017       2304.213          0.000     343.835  343.835  910.000 1
   173 1      -6915.022       2317.124          0.000     342.955  342.955  910.000 1
   174 1      -4431.292       -724.895          0.000     341.614  341.614  910.000 1
   175 1      -3918.184       -777.820          0.000     339.795  339.795  910.000 1
   176 1      -7306.309      -2342.230          0.000     339.662  339.662  910.000 1
   177 1      -8777.386       1358.094          0.000     338.788  338.788  910.000 1
   178 1      -2040.266        934.705          0.000     338.757  338.757  910.000 1
   179 1       -825.657        195.217          0.000     335.883  335.883  910.000 1
   180 1       2769.019       -728.242          0.000     344.570  344.570  910.000 1
   181 1       1100.393      -2282.676          0.000     344.074  344.074  910.000 1
   182 1      -7422.732       1381.108          0.000     332.706  332.706  910.000 1
   183 1       6827.567        620.659          0.000     341.370  341.370  910.000 1
   184 1      -7443.608        783.784          0.000     330.584  330.584  910.000 1
   185 1       1581.603       1981.803          0.000     338.610  338.610  910.000 1
   186 1       4754.098      -2025.046          0.000     337.456  337.456  910.000 1
   187 1      -6529.276      -2340.863          0.000     328.652  328.652  910.000 1
   188 1       2941.323       -434.825          0.000     335.876  335.876  910.000 1
   189 1      -7479.655       -148.682          0.000     326.063  326.063  910.000 1
   190 1       3578.010       -244.696          0.000     333.810  333.810  910.000 1
   191 1      -3307.035       -399.515          0.000     324.635  324.635  910.000 1
   192 1       5079.383      -1205.790          0.000     333.252  333.252  910.000 1
   193 1      -2972.038       2261.026          0.000     323.478  323.478  910.000 1
   194 1       -407.789       1859.916          0.000     323.302  323.302  910.000 1
   195 1      -2982.548      -1399.046          0.000     323.265  323.265  910.000 1
   196 1      -8297.981      -2210.321          0.000     320.733  320.733  910.000 1
   197 1      -4377.722       2336.397          0.000     320.620  320.620  910.000 1
   198 1       6392.116      -1046.279          0.000     329.112  329.112  910.000 1
   199 1       7301.990       1299.949          0.000     328.858  328.858  910.000 1
   200 1      -6078.695      -1869.380          0.000     319.932  319.932  910.000 1
   201 1      -4513.651       1580.257          0.000     319.582  319.582  910.000 1
   202 1      -6904.819       1081.712          0.000     319.375  319.375  910.000 1
   203 1       7049.188       2340.962          0.000     327.540  327.540  910.000 1
   204 1      -7735.401       1869.950          0.000     318.758  318.758  910.000 1
   205 1      -7610.084      -2194.516          0.000     318.362  318.362  910.000 1
   206 1        908.604       2154.602          0.000     324.306  324.306  910.000 1
   207 1      -3308.180      -1497.838          0.000     315.625  315.625  910.000 1
   208 1      -4736.928        289.479          0.000     315.216  315.216  910.000 1
   209 1       5410.045        847.589          0.000     321.952  321.952  910.000 1
   210 1       1420.709        357.565          0.000     320.720  320.720  910.000 1
   211 1       -870.271      -1281.753          0.000     311.343  311.343  910.000 1
   212 1      -9560.528        300.400          0.000     310.498  310.498  910.000 1
   213 1       4892.705       2357.996          0.000     318.504  318.504  910.000 1
   214 1      -4258.661      -1376.206          0.000     310.208  310.208  910.000 1
   215 1        854.175      -2062.166          0.000     317.002  317.002  910.000 1
   216 1      -4483.492      -2326.896          0.000     308.702  308.702  910.000 1
   217 1      -9057.838      -1636.748          0.000     308.228  308.228  910.000 1
   218 1       2014.478       -946.351          0.000     316.214  316.214  910.000 1
   219 1      -7417.927       1726.951          0.000     306.962  306.962  910.000 1
   220 1      -5942.848       -314.139          0.000     304.106  304.106  910.000 1
   221 1       2480.804      -2357.427          0.000     311.550  311.550  910.000 1
   222 1       3972.506        241.513          0.000     311.386  311.386  910.000 1
   223 1       4794.460      -2345.700          0.000     308.918  308.918  910.000 1
   224 1       6371.772      -1749.714          0.000     308.382  308.382  910.000 1
   225 1      -6560.907       1588.592          0.000     299.542  299.542  910.000 1
   226 1        -39.280      -1193.344          0.000     299.366  299.366  910.000 1
   227 1       -563.040      -1220.348          0.000     299.006  299.006  910.000 1
   228 1      -8272.417         -5.388          0.000     297.440  297.440  910.000 1
   229 1      -6377.358       1859.266          0.000     297.337  297.337  910.000 1
   230 1        556.636        326.100          0.000     304.452  304.452  910.000 1
   231 1       4031.965        926.034          0.000     301.976  301.976  910.000 1
   232 1      -5764.799       -700.280          0.000     291.603  291.603  910.000 1
   233 1       2659.671      -1123.256          0.000     299.136  299.136  910.000 1
   234 1      -2348.928        589.513          0.000     289.985  289.985  910.000 1
   235 1       -993.687      -2283.854          0.000     289.780  289.780  910.000 1
   236 1      -1899.860      -2245.278          0.000     289.137  289.137  910.000 1
   237 1      -6258.911       1582.618          0.000     288.884  288.884  910.000 1
   238 1      -1654.337      -1595.104          0.000     288.537  288.537  910.000 1
   239 1      -9571.007       1304.693          0.000     288.344  288.344  910.000 1
   240 1       1099.350       -526.123          0.000     295.854  295.854  910.000 1
   241 1      -6467.732       -221.583          0.000     287.249  287.249  910.000 1
   242 1       3921.533       -741.315          0.000     294.662  294.662  910.000 1
   243 1      -2673.947       -660.840          0.000     287.012  287.012  910.000 1
   244 1       -244.380       1592.623          0.000     287.002  287.002  910.000 1
   245 1      -7186.267      -2044.917          0.000     284.966  284.966  910.000 1
   246 1      -7575.836       1070.553          0.000     284.119  284.119  910.000 1
   247 1        608.161      -1597.493          0.000     291.368  291.368  910.000 1
   248 1      -9563.323       -665.074          0.000     283.449  283.449  910.000 1
   249 1       3854.080       1638.269          0.000     290.980  290.980  910.000 1
   250 1      -2680.408       2368.802          0.000     282.227  282.227  910.000 1
   251 1      -4564.092      -1912.468          0.000     281.773  281.773  910.000 1
   252 1       6103.021        545.218          0.000     289.038  289.038  910.000 1
   253 1      -1011.966       2347.980          0.000     281.323  281.323  910.000 1
   254 1      -2170.491      -2134.005          0.000     280.727  280.727  910.000 1
   255 1      -9058.194        -33.425          0.000     278.208  278.208  910.000 1
   256 1      -1376.570      -1681.269          0.000     278.008  278.008  910.000 1
   257 1      -5514.348      -1096.281          0.000     277.488  277.488  910.000 1
   258 1      -5998.892      -2239.095          0.000     277.474  277.474  910.000 1
   259 1        222.927      -1056.406          0.000     276.878  276.878  910.000 1
   260 1      -9298.251       -774.195          0.000     274.975  274.975  910.000 1
   261 1      -4804.360         -5.515          0.000     273.482  273.482  910.000 1
   262 1       2368.409       2299.080          0.000     280.152  280.152  910.000 1
   263 1       1960.827       2363.402          0.000     279.834  279.834  910.000 1
   264 1      -6745.847       1945.982          0.000     271.971  271.971  910.000 1
   265 1      -2798.058       -920.303          0.000     271.772  271.772  910.000 1
   266 1      -6117.625       2211.407          0.000     271.312  271.312  910.000 1
   267 1       5750.461      -1050.461          0.000     278.056  278.056  910.000 1
   268 1        618.855      -1881.299          0.000     276.574  276.574  910.000 1
   269 1      -8434.898       -246.772          0.000     269.391  269.391  910.000 1
   270 1       1305.309         80.667          0.000     275.116  275.116  910.000 1
   271 1      -6980.328        149.896          0.000     267.841  267.841  910.000 1
   272 1      -8776.341       2363.872          0.000     267.679  267.679  910.000 1
   273 1      -3979.974      -1275.698          0.000     266.921  266.921  910.000 1
   274 1       1485.136       2272.185          0.000     273.360  273.360  910.000 1
   275 1      -6367.523         44.220          0.000     266.132  266.132  910.000 1
   276 1      -6537.394        300.899          0.000     264.817  264.817  910.000 1
   277 1      -7321.153       2196.768          0.000     264.149  264.149  910.000 1
   278 1       7160.683        267.462          0.000     270.404  270.404  910.000 1
   279 1      -9564.867          2.767          0.000     263.337  263.337  910.000 1
   280 1       7245.884         11.392          0.000     268.848  268.848  910.000 1
   281 1       2538.770        562.427          0.000     267.278  267.278  910.000 1
   282 1       5525.139      -1203.447          0.000     266.658  266.658  910.000 1
   283 1       1984.095       -617.514          0.000     266.484  266.484  910.000 1
   284 1      -9432.863       1547.992          0.000     256.429  256.429  910.000 1
   285 1      -7229.470       1946.249          0.000     255.545  255.545  910.000 1
   286 1       2868.778      -2380.420          0.000     260.400  260.400  910.000 1
   287 1       -738.738       2324.948          0.000     252.872  252.872  910.000 1
   288 1       7339.877       2299.904          0.000     259.608  259.608  910.000 1
   289 1      -9528.652       1919.134          0.000     252.864  252.864  910.000 1
   290 1      -6752.492        830.804          0.000     252.433  252.433  910.000 1
   291 1       -628.899       2090.286          0.000     251.867  251.867  910.000 1
   292 1      -6436.919      -1545.891          0.000     251.243  251.243  910.000 1
   293 1      -8466.655      -1741.531          0.000     250.713  250.713  910.000 1
   294 1        998.978       1506.087          0.000     256.408  256.408  910.000 1
   295 1       2135.993      -1536.008          0.000     256.298  256.298  910.000 1
   296 1       6091.469        817.545          0.000     256.044  256.044  910.000 1
   297 1        399.729         94.071          0.000     248.637  248.637  910.000 1
   298 1      -1323.409       -568.823          0.000     247.912  247.912  910.000 1
   299 1      -8722.953      -1732.726          0.000     247.456  247.456  910.000 1
   300 1      -1268.898      -2300.030          0.000     247.244  247.244  910.000 1
   301 1      -2172.781       1782.758          0.000     247.067  247.067  910.000 1
   302 1      -5777.435       1616.780          0.000     246.772  246.772  910.000 1
   303 1       6450.368        147.460          0.000     253.258  253.258  910.000 1
   304 1      -5561.294       1483.136          0.000     246.609  246.609  910.000 1
   305 1      -4915.651       2389.496          0.000     246.535  246.535  910.000 1
   306 1       3935.109       1900.423          0.000     252.516  252.516  910.000 1
   307 1        219.349        272.253          0.000     245.298  245.298  910.000 1
   308 1      -8417.236      -1486.992          0.000     243.535  243.535  910.000 1
   309 1       1550.014      -1117.050          0.000     250.000  250.000  910.000 1
   310 1       -257.016      -1457.371          0.000     243.359  243.359  910.000 1
   311 1       1121.964       2346.594          0.000     249.758  249.758  910.000 1
   312 1       2155.580       1362.276          0.000     249.612  249.612  910.000 1
   313 1      -9184.456       1611.241          0.000     242.584  242.584  910.000 1
   314 1      -3476.333       -164.134          0.000     240.182  240.182  910.000 1
   315 1      -3737.436      -2022.042          0.000     240.046  240.046  910.000 1
   316 1      -2831.754       1384.200          0.000     239.757  239.757  910.000 1
   317 1        -59.359       1396.072          0.000     238.575  238.575  910.000 1
   318 1      -2160.145       2031.630          0.000     238.364  238.364  910.000 1
   319 1      -2977.682      -1110.821          0.000     238.306  238.306  910.000 1
   320 1      -1294.415       -278.840          0.000     236.479  236.479  910.000 1
   321 1      -1205.738       2167.420          0.000     234.622  234.622  910.000 1
   322 1      -7294.429      -1491.765          0.000     234.554  234.554  910.000 1
   323 1      -7389.629        124.631          0.000     234.503  234.503  910.000 1
   324 1       2337.167       -590.265          0.000     240.194  240.194  910.000 1
   325 1      -7529.483      -1139.850          0.000     232.740  232.740  910.000 1
   326 1       5492.098      -2270.328          0.000     238.848  238.848  910.000 1
   327 1       6550.209        538.304          0.000     237.312  237.312  910.000 1
   328 1      -6242.390      -2333.955          0.000     230.379  230.379  910.000 1
   329 1      -5546.061      -2187.498          0.000     229.746  229.746  910.000 1
   330 1      -7468.164       -433.776          0.000     229.633  229.633  910.000 1
   331 1       1900.039      -2407.092          0.000     234.722  234.722  910.000 1
   332 1      -7188.045      -1276.910          0.000     228.264  228.264  910.000 1
   333 1      -5804.792       1374.798          0.000     227.634  227.634  910.000 1
   334 1      -4175.443       -913.847          0.000     226.959  226.959  910.000 1
   335 1       1331.153       1432.705          0.000     232.920  232.920  910.000 1
   336 1       2073.446       1589.502          0.000     232.760  232.760  910.000 1
   337 1      -5499.995       2408.572          0.000     226.109  226.109  910.000 1
   338 1       -126.526       -116.057          0.000     225.028  225.028  910.000 1
   339 1      -1500.272      -2409.214          0.000     224.749  224.749  910.000 1
   340 1      -7668.806      -1482.526          0.000     224.107  224.107  910.000 1
   341 1      -1712.569        727.790          0.000     224.042  224.042  910.000 1
   342 1      -4988.359        174.981          0.000     222.988  222.988  910.000 1
   343 1      -8594.154       1650.872          0.000     220.692  220.692  910.000 1
   344 1      -6771.446      -1990.606          0.000     220.390  220.390  910.000 1
   345 1      -2610.767        585.586          0.000     220.041  220.041  910.000 1